 
Create N   file=QZ4P-N
XC
  HartreeFock
End
  HartreeFock
RIHartreeFock
  UseMe True
  Quality Excellent
  DependencyThreshold 1.0E-8
End

 *******************************************************************************
 *                                                                             *
 *  -------------------------------------                                      *
 *   Amsterdam Density Functional  (ADF)         2018                          *
 *  -------------------------------------                                      *
 *                                               r70630 2018-11-24             *
 *                                                                             *
 *                                                                             *
 *                              =================                              *
 *                              |               |                              *
 *                              |     A D F     |                              *
 *                              |               |                              *
 *                              =================                              *
 *                                                                             *
 *                                                                             *
 *   Online information and documentation:  https://www.scm.com/support/       *
 *   E-mail:  support@scm.com   info@scm.com                                   *
 *                                                                             *
 *   Scientific publications using ADF results must be properly referenced     *
 *   See the User Manuals (or the web site) for recommended citations          *
 *   The terms and conditions of the End User License Agreement apply to       *
 *   the use of ADF, https://www.scm.com/license-terms/                        *
 *                                                                             *
 **********************  x86_64_linux_intel / intelmpi  ************************
 
 Licensed to: Mr. Vladimir Konjkov / Florida Institute of Technology / Melbourne / Florida / USA
 SCM User ID: u21173
  
 ADF 2018  RunTime: Mar23-2019 10:00:01  Nodes: 1  Procs: 1

 Temporary files are created in /tmp/kid_0.1261875612

 Nitrogen (QZ, all electron, 8S 4P 2D 2F)



 ===========================
 A T T A C H E D   F I L E S
 ===========================
  
 CREATE - Data File:    QZ4P-N
                        Nitrogen (QZ, all electron, 8S 4P 2D 2F)



 ===============================
 M O D E L   P A R A M E T E R S
 ===============================
  
 DENSITY FUNCTIONAL POTENTIAL (scf)
    Hybrid:                            HARTREEFOCK                             == Not Default ==

 SPIN  (restricted / unrestr.)
    Molecule:                          Restricted                               

 OTHER ASPECTS
    Relativistic Corrections:          ---                                      

    Nuclear Charge Density Model:      Point Charge Nuclei                      
    Core Treatment:                    Frozen Orbital(s)                        

    Hyperfine or Zeeman Interaction:   ---                                      



 =====================================
 S Y M M E T R Y ,   E L E C T R O N S
 =====================================
  
 Symmetry: ATOM

 Irreducible Representations, including subspecies
 -------------------------------------------------
 S
 P:x  P:y  P:z
 D:z2  D:x2-y2  D:xy  D:xz  D:yz
 F:z3  F:z  F:xyz  F:z2x  F:z2y  F:x  F:y


 Configuration of Valence Electrons
 ==================================

          Occupation Numbers
          -------------------------------------------------
 S        2*2
 P        3
 D        0
 F        0
          -------------------------------------------------

 Total:   7

 Net Charge: 0 (Nuclei minus Electrons)

 Preset values for MO occupations will be applied through SCF cycle no. 1000000
 Thereafter, the program will assign electrons to MOs that are spatially
 similar to the occupied MOs in a "reference" cycle ("KeepOrbitals").
 The reference cycle is always the PREVIOUS cycle: it will evolve with
 the SCF procedure.



 ================================
 (Slater-type)  F U N C T I O N S  ***  (Basis and Fit)  ***
 ================================
  

 Atom Type    1  (N)
 ==============

 Valence Basis Sets:  16
 -----------------------
   1 S   12.850000
   1 S    7.650000
   1 S    5.750000
   2 S    6.850000
   2 S    3.200000
   2 S    2.050000
   2 S    1.400000
   2 S    0.700000
   2 P    6.100000
   2 P    2.950000
   2 P    1.600000
   2 P    0.940000
   3 D    2.500000
   3 D    1.500000
   4 F    4.000000
   4 F    2.000000

 Charge Fitting Sets (for the computation of the Coulomb Potential):  37
 -----------------------------------------------------------------------
   1 S   25.700000
   1 S   19.830000
   1 S   15.300000
   1 S   10.210000
   2 S   12.580000
   2 S    9.200000
   2 S    6.720000
   2 S    4.920000
   3 S    5.260000
   3 S    4.030000
   3 S    3.100000
   3 S    2.380000
   3 S    1.820000
   3 S    1.400000
   2 P   13.750000
   2 P    9.280000
   2 P    6.260000
   3 P    6.200000
   3 P    4.440000
   3 P    3.190000
   3 P    2.290000
   3 P    1.640000
   3 D   12.200000
   3 D    8.020000
   3 D    5.270000
   4 D    4.610000
   4 D    3.180000
   4 D    2.200000
   4 F   11.650000
   4 F    7.560000
   4 F    4.910000
   5 F    3.990000
   5 F    2.700000
   5 G   10.100000
   5 G    6.690000
   5 G    4.440000
   5 G    2.940000


 BAS: List of all Elementary Cartesian Basis Functions
 =====================================================

 The numbering in the list below (to the right of the function characteristics) is referred
 to in print-outs of MO eigenvectors and Mulliken populations in the BAS representation
 (as contrasted to the SFO representation).

 Notes:
 1. The functions are characterized by a polynomial prefactor (powers of x,y,z and r) and
    an exponential decay factor alpha.
 2. Since the basis sets are specific for an atom TYPE, the individual functions occur on
    all atoms of that type.
 3. The word 'Core' in the left margin signals that it is a Core Function (CF) : not a
    degree of freedom in the valence set, but only used to ensure orthogonalization of
    the other valence basis functions on the frozen Core Orbitals.


 (power of) X  Y  Z  R     Alpha  on Atom
            ==========     =====     ==========

 N                                    1
                                  ---------------------------------------------------------------------------
            0  0  0  0    12.850      1
            0  0  0  0     7.650      2
            0  0  0  0     5.750      3
            0  0  0  1     6.850      4
            0  0  0  1     3.200      5
            0  0  0  1     2.050      6
            0  0  0  1     1.400      7
            0  0  0  1     0.700      8
            1  0  0  0     6.100      9
            0  1  0  0     6.100     10
            0  0  1  0     6.100     11
            1  0  0  0     2.950     12
            0  1  0  0     2.950     13
            0  0  1  0     2.950     14
            1  0  0  0     1.600     15
            0  1  0  0     1.600     16
            0  0  1  0     1.600     17
            1  0  0  0     0.940     18
            0  1  0  0     0.940     19
            0  0  1  0     0.940     20
            2  0  0  0     2.500     21
            1  1  0  0     2.500     22
            1  0  1  0     2.500     23
            0  2  0  0     2.500     24
            0  1  1  0     2.500     25
            0  0  2  0     2.500     26
            2  0  0  0     1.500     27
            1  1  0  0     1.500     28
            1  0  1  0     1.500     29
            0  2  0  0     1.500     30
            0  1  1  0     1.500     31
            0  0  2  0     1.500     32
            3  0  0  0     4.000     33
            2  1  0  0     4.000     34
            2  0  1  0     4.000     35
            1  2  0  0     4.000     36
            1  1  1  0     4.000     37
            1  0  2  0     4.000     38
            0  3  0  0     4.000     39
            0  2  1  0     4.000     40
            0  1  2  0     4.000     41
            0  0  3  0     4.000     42
            3  0  0  0     2.000     43
            2  1  0  0     2.000     44
            2  0  1  0     2.000     45
            1  2  0  0     2.000     46
            1  1  1  0     2.000     47
            1  0  2  0     2.000     48
            0  3  0  0     2.000     49
            0  2  1  0     2.000     50
            0  1  2  0     2.000     51
            0  0  3  0     2.000     52

 Total number of charge fitting functions (nprimf)       184
 Total number of Cartesian basis functions (naos)         52
 Total number of Cartesian core functions  (ncos)          0



 BAS: List of all Elementary Cartesian Basis Functions
 =====================================================

 The numbering in the list below (to the right of the function characteristics) is referred
 to in print-outs of MO eigenvectors and Mulliken populations in the BAS representation
 (as contrasted to the SFO representation).

 Notes:
 1. The functions are characterized by a polynomial prefactor (powers of x,y,z and r) and
    an exponential decay factor alpha.
 2. Since the basis sets are specific for an atom TYPE, the individual functions occur on
    all atoms of that type.
 3. The word 'Core' in the left margin signals that it is a Core Function (CF) : not a
    degree of freedom in the valence set, but only used to ensure orthogonalization of
    the other valence basis functions on the frozen Core Orbitals.


 (power of) X  Y  Z  R     Alpha  on Atom
            ==========     =====     ==========

 N                                    1
                                  ---------------------------------------------------------------------------
            0  0  0  0    12.850      1
            0  0  0  0     7.650      2
            0  0  0  0     5.750      3
            0  0  0  1     6.850      4
            0  0  0  1     3.200      5
            0  0  0  1     2.050      6
            0  0  0  1     1.400      7
            0  0  0  1     0.700      8
            1  0  0  0     6.100      9
            0  1  0  0     6.100     10
            0  0  1  0     6.100     11
            1  0  0  0     2.950     12
            0  1  0  0     2.950     13
            0  0  1  0     2.950     14
            1  0  0  0     1.600     15
            0  1  0  0     1.600     16
            0  0  1  0     1.600     17
            1  0  0  0     0.940     18
            0  1  0  0     0.940     19
            0  0  1  0     0.940     20
            2  0  0  0     2.500     21
            1  1  0  0     2.500     22
            1  0  1  0     2.500     23
            0  2  0  0     2.500     24
            0  1  1  0     2.500     25
            0  0  2  0     2.500     26
            2  0  0  0     1.500     27
            1  1  0  0     1.500     28
            1  0  1  0     1.500     29
            0  2  0  0     1.500     30
            0  1  1  0     1.500     31
            0  0  2  0     1.500     32
            3  0  0  0     4.000     33
            2  1  0  0     4.000     34
            2  0  1  0     4.000     35
            1  2  0  0     4.000     36
            1  1  1  0     4.000     37
            1  0  2  0     4.000     38
            0  3  0  0     4.000     39
            0  2  1  0     4.000     40
            0  1  2  0     4.000     41
            0  0  3  0     4.000     42
            3  0  0  0     2.000     43
            2  1  0  0     2.000     44
            2  0  1  0     2.000     45
            1  2  0  0     2.000     46
            1  1  1  0     2.000     47
            1  0  2  0     2.000     48
            0  3  0  0     2.000     49
            0  2  1  0     2.000     50
            0  1  2  0     2.000     51
            0  0  3  0     2.000     52
1
 ***************************************************************************************************



                                              ***********************
                                              *  T E C H N I C A L  *
                                              ***********************
  



 =============================================================
 P A R A L L E L I Z A T I O N  and  V E C T O R I Z A T I O N
 =============================================================
  
 Nr of parallel processes:                                1
 Maximum vector length in NumInt loops:                 128

 IO buffersize (Mb):                                     64.000000



 =====================
 S C F   U P D A T E S
 =====================
  
 Max. nr. of cycles:                               300
 Convergence criterion:                              0.0000000100
   secondary criterion:                              0.0000000100

 Mix parameter (when DIIS does not apply):           0.2000000000
 Special mix parameter for the first cycle:          1.0000000000
 Mixed ADIIS+DIIS will be used
    Max number of expansion vectors:                10
    Pure ADIIS when Max([F,P]) is above              0.1000000000
    Pure DIIS when Max([F,P]) is below               0.0010000000
 Automatic ElectronSmearing (in case of problematic SCF convergence) disabled



 =================
 P R E C I S I O N  ***  (General: NumInt, NeglectFunctionTails, ...)  ***
 =================
  

 NumInt:           Target precision:                12.0000000000
 -------           Initial precision:               10.0000000000
                   Min. precision (optimization):   10.0000000000

 Neglect Functions:          Basis functions:        0.1000000000E-13
 ------------------          Fit functions:          0.1000000000E-13



 ===========================
 L I N E A R   S C A L I N G
 ===========================
  

 Cut-off radii density fit:                        0.1000000000E-97
 Overlap cut-off criterion AO matrix elements:     0.1000000000E-97
 Cut-offs for Coulomb potential and fitted density:0.1000000000E-97
 Cut-off criterion for Coulomb multipole terms:    0.1000000000E-97
 Progressive Convergence parameter:                 0.000000000    
1
 ***************************************************************************************************



                                            ***************************
                                            *  C O M P U T A T I O N  *
                                            ***************************
  

 Number of elements of the density matrix on this node (used, total):      1378      1378



 ===========================================
 Numerical Integration : Fuzzy Cells (Becke)
 ===========================================
  
 Becke grid quality: VERYGOOD       
  
 Lebedev angular grid order:             min:  13 max:  41
 Nr. of radial points:                   min:  81 max:  81

 Total nr. of points:         81
 Nr. of blocks:                1
 Block length:                81
 Nr. of dummy points:          0


 Test of Precision of the Numerical Integration Grid
 ===================================================

 Integral of the Total Core Density:                   0.00000000000000



 ========================
 Density Fitting (zlmFit)
 ========================
  
 ZlmFit Fit Quality: VERYGOOD       
  
 Max L-expansion:                        min:   0 max:   0
 Nr. of radial interpolation points:     min: 190 max: 190



 ======================
 RI Hartree-Fock Scheme
 ======================
  
 Fit Set Quality     : EXCELLENT
 Integration Quality : EXCELLENT
 Threshold Quality   : EXCELLENT
 Response Quality    : DEFAULT
 Is Range Separated  :  F
 
 RIHartreeFock Dependency: number of modified vectors:           0



 =====
 S C F  ***  ScaSCF  ***
 =====
  

 CYCLE    1
 SCF Error: norm([F,P])=      0.000000000000, max([F,P])=      0.000000000000
 orbitals (Q,E):
 ---------------
 S :1...8            ( 2.00   -24.5000)  ( 2.00    -6.1250)  ( 0.00    -2.7202)  ( 0.00    -1.5025)
                     ( 0.00    -0.9350)  ( 0.00     3.4702)  ( 0.00    29.9166)  ( 0.00   227.4336)
 P :1...4            ( 3.00    -6.1098)  ( 0.00    -2.7145)  ( 0.00    -1.4897)  ( 0.00     6.4874)
 D :1...2            ( 0.00    -2.7183)  ( 0.00    -1.4895)
 F :1...2            ( 0.00    -1.5093)  ( 0.00     2.0694)

 CYCLE    2
  SDIIS (wt  0.000):  1.0000 -0.0000
 A-DIIS (wt  1.000):  0.0000  1.0000
  DIIS coefficients:  0.0000  1.0000
 SCF Error: norm([F,P])=      6.857440995673, max([F,P])=      3.410573092363
 orbitals (Q,E):
 ---------------
 S :1...3            ( 2.00   -12.6236)  ( 2.00    -0.1580)  ( 0.00     0.1110)
 P :1...2            ( 3.00     0.2135)  ( 0.00     0.7663)
 D :1...1            ( 0.00     0.8053)
 F :1...1            ( 0.00     1.6999)

 CYCLE    3
  SDIIS (wt  0.000):  0.1323  0.8677
 A-DIIS (wt  1.000):  0.0578  0.9422
  DIIS coefficients:  0.0578  0.9422
 SCF Error: norm([F,P])=      1.805478893489, max([F,P])=      1.462060195644
 orbitals (Q,E):
 ---------------
 S :1...3            ( 2.00   -17.4357)  ( 2.00    -1.7726)  ( 0.00    -0.0646)
 P :1...2            ( 3.00    -0.9379)  ( 0.00     0.0277)
 D :1...1            ( 0.00     0.3400)
 F :1...1            ( 0.00     1.1845)

 CYCLE    4
  SDIIS (wt  0.000): -0.0458  0.3022  0.7436
 A-DIIS (wt  1.000):  0.0000  0.0107  0.9893
  DIIS coefficients:  0.0000  0.0107  0.9893
 SCF Error: norm([F,P])=      1.116150972525, max([F,P])=      0.487067697110
 orbitals (Q,E):
 ---------------
 S :1...3            ( 2.00   -14.9795)  ( 2.00    -0.7525)  ( 0.00     0.0918)
 P :1...2            ( 3.00    -0.0254)  ( 0.00     0.4062)
 D :1...1            ( 0.00     0.7391)
 F :1...1            ( 0.00     1.6279)

 CYCLE    5
  SDIIS (wt  0.000): -0.0070 -0.1087  0.2863  0.8293
 A-DIIS (wt  1.000):  0.0000  0.0000  0.0534  0.9466
  DIIS coefficients:  0.0000  0.0000  0.0534  0.9466
 SCF Error: norm([F,P])=      0.532410053821, max([F,P])=      0.301918807545
 orbitals (Q,E):
 ---------------
 S :1...3            ( 2.00   -16.2479)  ( 2.00    -1.2146)  ( 0.00     0.0637)
 P :1...2            ( 3.00    -0.4120)  ( 0.00     0.2737)
 D :1...1            ( 0.00     0.6057)
 F :1...1            ( 0.00     1.4812)

 CYCLE    6
  SDIIS (wt  0.000):  0.0009 -0.0017 -0.1437  0.1963  0.9482
 A-DIIS (wt  1.000):  0.0000  0.0000  0.0000  0.0000  1.0000
  DIIS coefficients:  0.0000  0.0000  0.0000  0.0000  1.0000
 SCF Error: norm([F,P])=      0.264925372297, max([F,P])=      0.133399386511
 orbitals (Q,E):
 ---------------
 S :1...3            ( 2.00   -15.6065)  ( 2.00    -0.9606)  ( 0.00     0.0843)
 P :1...2            ( 3.00    -0.1960)  ( 0.00     0.3514)
 D :1...1            ( 0.00     0.6910)
 F :1...1            ( 0.00     1.5759)

 CYCLE    7
  SDIIS (wt  0.325):  0.0003  0.0018 -0.0173 -0.0809  0.3002  0.7958
 A-DIIS (wt  0.675):  0.0000  0.0000  0.0000  0.0000  0.0153  0.9847
  DIIS coefficients:  0.0001  0.0006 -0.0056 -0.0263  0.1079  0.9233
 SCF Error: norm([F,P])=      0.128083505287, max([F,P])=      0.067803830049
 orbitals (Q,E):
 ---------------
 S :1...3            ( 2.00   -15.8952)  ( 2.00    -1.0660)  ( 0.00     0.0778)
 P :1...2            ( 3.00    -0.2865)  ( 0.00     0.3220)
 D :1...1            ( 0.00     0.6594)
 F :1...1            ( 0.00     1.5412)

 CYCLE    8
  SDIIS (wt  0.777): -0.0001  0.0004  0.0049  0.0004 -0.1383  0.1016  1.0310
 A-DIIS (wt  0.223):  0.0000  0.0000  0.0000  0.0000  0.0000  0.0000  1.0000
  DIIS coefficients: -0.0000  0.0003  0.0038  0.0003 -0.1074  0.0789  1.0241
 SCF Error: norm([F,P])=      0.043861636903, max([F,P])=      0.023106241552
 orbitals (Q,E):
 ---------------
 S :1...3            ( 2.00   -15.8147)  ( 2.00    -1.0352)  ( 0.00     0.0800)
 P :1...2            ( 3.00    -0.2602)  ( 0.00     0.3308)
 D :1...1            ( 0.00     0.6692)
 F :1...1            ( 0.00     1.5520)

 CYCLE    9
  SDIIS (wt  0.986):  0.0000 -0.0000 -0.0000  0.0031  0.0013 -0.0529 -0.0141  1.0627
 A-DIIS (wt  0.014):  0.0000  0.0000  0.0000  0.0000  0.0000  0.0000  0.0000  1.0000
  DIIS coefficients:  0.0000 -0.0000 -0.0000  0.0031  0.0013 -0.0522 -0.0139  1.0618
 SCF Error: norm([F,P])=      0.004614747082, max([F,P])=      0.002381131798
 orbitals (Q,E):
 ---------------
 S :1...3            ( 2.00   -15.8227)  ( 2.00    -1.0381)  ( 0.00     0.0798)
 P :1...2            ( 3.00    -0.2628)  ( 0.00     0.3300)
 D :1...1            ( 0.00     0.6683)
 F :1...1            ( 0.00     1.5510)

 CYCLE   10
  SDIIS (wt  1.000): -0.0000  0.0000  0.0000 -0.0003 -0.0007  0.0069  0.0047 -0.1403  1.1297
  DIIS coefficients: -0.0000  0.0000  0.0000 -0.0003 -0.0007  0.0069  0.0047 -0.1403  1.1297
 SCF Error: norm([F,P])=      0.000040633825, max([F,P])=      0.000022955378
 orbitals (Q,E):
 ---------------
 S :1...3            ( 2.00   -15.8227)  ( 2.00    -1.0381)  ( 0.00     0.0798)
 P :1...2            ( 3.00    -0.2628)  ( 0.00     0.3300)
 D :1...1            ( 0.00     0.6684)
 F :1...1            ( 0.00     1.5510)

 CYCLE   11
  SDIIS (wt  1.000): -0.0000  0.0000  0.0000 -0.0000 -0.0003  0.0001  0.0066 -0.1079  1.1016
  DIIS coefficients: -0.0000  0.0000  0.0000 -0.0000 -0.0003  0.0001  0.0066 -0.1079  1.1016
 SCF Error: norm([F,P])=      0.000001241557, max([F,P])=      0.000000777132
 orbitals (Q,E):
 ---------------
 S :1...3            ( 2.00   -15.8227)  ( 2.00    -1.0381)  ( 0.00     0.0798)
 P :1...2            ( 3.00    -0.2628)  ( 0.00     0.3300)
 D :1...1            ( 0.00     0.6684)
 F :1...1            ( 0.00     1.5510)

 CYCLE   12
  SDIIS (wt  1.000): -0.0000  0.0000  0.0000 -0.0001 -0.0002 -0.0259  1.0262
  DIIS coefficients: -0.0000  0.0000  0.0000 -0.0001 -0.0002 -0.0259  1.0262
 SCF Error: norm([F,P])=      0.000000039093, max([F,P])=      0.000000024375
 orbitals (Q,E):
 ---------------
 S :1...3            ( 2.00   -15.8227)  ( 2.00    -1.0381)  ( 0.00     0.0798)
 P :1...2            ( 3.00    -0.2628)  ( 0.00     0.3300)
 D :1...1            ( 0.00     0.6684)
 F :1...1            ( 0.00     1.5510)

 CYCLE   13
  SDIIS (wt  1.000):  0.0000  0.0000  0.0008 -0.0576  1.0567
  DIIS coefficients:  0.0000  0.0000  0.0008 -0.0576  1.0567
 SCF Error: norm([F,P])=      0.000000001288, max([F,P])=      0.000000000908
 orbitals (Q,E):
 ---------------
 S :1...3            ( 2.00   -15.8227)  ( 2.00    -1.0381)  ( 0.00     0.0798)
 P :1...2            ( 3.00    -0.2628)  ( 0.00     0.3300)
 D :1...1            ( 0.00     0.6684)
 F :1...1            ( 0.00     1.5510)

 SCF CONVERGED

 CYCLE   14
1
 ***************************************************************************************************



                                                *******************
                                                *  R E S U L T S  *
                                                *******************
  
  
 Hartree-Fock exchange energy:   -5.93252860436208     
 *** Setting up for NEW gradients in Focky
 *** Using FIT density in Focky

 Orbital Energies, per Irrep and Spin:
 ======================================
                        Occup              E (au)              E (eV)       Diff (eV) with prev. cycle
                        -----      --------------------        ------       --------------------------
 S
               1        2.000     -0.15822657567268E+02      -430.556               2.02E-09
               2        2.000     -0.10380652868213E+01       -28.247               1.26E-09
               3        0.000      0.79825925855637E-01         2.172
               4        0.000      0.58384967116853E+00        15.887
               5        0.000      0.25983261345968E+01        70.704
               6        0.000      0.10022463753279E+02       272.725
               7        0.000      0.39952410218908E+02      1087.160
               8        0.000      0.24132238172679E+03      6566.716
 P
               1        3.000     -0.26278097913946E+00        -7.151               7.10E-10
               2        0.000      0.32999416751042E+00         8.980
               3        0.000      0.20856109759377E+01        56.752
               4        0.000      0.15292922947214E+02       416.142
 D
               1        0.000      0.66835588859466E+00        18.187
               2        0.000      0.27860886308190E+01        75.813
 F
               1        0.000      0.15510438555897E+01        42.206
               2        0.000      0.75452880832533E+01       205.318


 Partially Occupied:
               1 P                -0.26278097913946E+00
  
 HOMO :        2 S                -0.10380652868213E+01
 LUMO :        3 S                 0.79825925855637E-01
  


 Orbital Energies, all Irreps
 ========================================

 Irrep        no.  (spin)   Occup              E (au)                E (eV)
 ---------------------------------------------------------------------------
 S             1             2.00       -0.15822657567268E+02      -430.5564
 S             2             2.00       -0.10380652868213E+01       -28.2472
 P             1             3.00       -0.26278097913946E+00        -7.1506
 S             3             0.00        0.79825925855637E-01         2.1722
 P             2             0.00        0.32999416751042E+00         8.9796
 S             4             0.00        0.58384967116853E+00        15.8874
 D             1             0.00        0.66835588859466E+00        18.1869
 F             1             0.00        0.15510438555897E+01        42.2061
 P             3             0.00        0.20856109759377E+01        56.7524
 S             5             0.00        0.25983261345968E+01        70.7041
 D             2             0.00        0.27860886308190E+01        75.8133
 F             2             0.00        0.75452880832533E+01       205.3177
 S             6             0.00        0.10022463753279E+02       272.7251
 P             4             0.00        0.15292922947214E+02       416.1416
 S             7             0.00        0.39952410218908E+02      1087.1604
 S             8             0.00        0.24132238172679E+03      6566.7161


 All Electron Calculation, thus no Orbital Energies of the Core Orbitals are calculated



 =======================================
 M U L L I K E N   P O P U L A T I O N S
 =======================================
  
 The survey below gives for each atom:
 a) the total charge (Z minus electrons)
 b) the net spin polarization (nr of electrons spin-A minus spin-B)
 c) for each spin the atomic electron valence density (integrated) per L-value.

 Atom              Charge    Spin density          S         P         D         F
 ----              ------    ------------       ------    ------    ------    ------
 1 N               0.0000                       4.0000    3.0000    0.0000    0.0000

 Populations of individual BAS functions
 ----------------------------------------
 1 N            0.0379  1.3370  0.0664  0.4771  0.3721  1.2766  0.4360 -0.0031  0.0077  0.0077
                0.0077  0.2272  0.2272  0.2272  0.4784  0.4784  0.4784  0.2867  0.2867  0.2867
                0.0000  0.0000  0.0000  0.0000  0.0000  0.0000  0.0000  0.0000  0.0000  0.0000
                0.0000  0.0000  0.0000  0.0000  0.0000  0.0000  0.0000  0.0000  0.0000  0.0000
                0.0000  0.0000  0.0000  0.0000  0.0000  0.0000  0.0000  0.0000  0.0000  0.0000
                0.0000  0.0000

 Gross Charges per Atom (Z minus electrons)
 ==========================================
             0.0000
 Net Total:  0.00000000



 =======================================================================
 Electrostatic potential at the Nuclei due to electrons and other nuclei
 =======================================================================
  
         Atom                  Potential
         ----                  ---------
     1)   N                  18.14972822
 
 
 ========================
 No memory problems found
 ========================
 
 Maximum number of active allocate calls:         454
 
 *******************************************************************************

                             A D F   E X I T
 NORMAL TERMINATION



 =================
 Timing Statistics
 =================
  
 Total Used :                     CPU=        1.05      System=        0.10     Elapsed=        2.55

 Calls  Section                     ( Mean, Percentage )
 ---------------------------------------------------------------------------------------------------
     3  ><      ................      0.00    0.40             0.00    1.40             0.00    0.44
     1  INIT    ................      0.04    3.42             0.01    6.92             1.30   51.20
     1  GEOMET  ................      0.02    2.33             0.03   35.69             0.10    3.95
     1  INPUTA  ................      0.00    0.39             0.00    0.42             0.01    0.24
     1  MAINSY  ................      0.01    0.90             0.00    4.03             0.02    0.95
     1  SYMFIT  ................      0.00    0.12             0.00    0.23             0.00    0.10
     1  CORORT  ................      0.00    0.06             0.00    0.22             0.00    0.03
     1  SYMORB  ................      0.00    0.08             0.00    0.00             0.00    0.03
     1  FITINT  ................      0.01    1.39             0.00    2.11             0.02    0.80
     1  CLSMAT  ................      0.00    0.14             0.00    0.12             0.00    0.08
     1  ORTHON  ................      0.01    0.64             0.00    1.34             0.01    0.53
     1  GENPT   ................      0.02    1.90             0.00    0.76             0.03    0.99
     1  PTBAS   ................      0.00    0.38             0.00    0.56             0.01    0.35
    14  FOCKY   ................      0.06   78.38             0.00   37.91             0.06   35.44
    14  FOCKTR  ................      0.00    1.14             0.00    0.32             0.00    0.50
    14  SDIIS   ................      0.00    2.60             0.00    6.80             0.00    1.71
     1  COREPS  ................      0.04    3.40             0.00    0.01             0.04    1.50
     1  POPAN   ................      0.01    0.83             0.00    0.20             0.01    0.43
     1  DEBYE   ................      0.00    0.18             0.00    0.00             0.00    0.14
     1  EXIT PROCEDURE .........      0.01    1.29             0.00    0.97             0.01    0.59


 Currently Open Files (EXIT00)
 ====================

 Unit    Access Format  Status   Type       Ident (file)
 -------------------------------------------------------
   3      SEQ    FORM   TRANSP  NORMAL      LOGFILE
                                          ( logfile )


 Buffered I/O statistics
 =======================
 Memory available:                     67108864
 Number of records fitting in memory:     16131
 Input :   0.1% of                        46823  *4k bytes
 Output:   7.4% of                         2781  *4k bytes
 Records from serial files evicted:           0
                    others evicted:           0
 Hash table lookups:      95993 with          0 conflicts (  0.00%)

 ***************************************************************************************************
 (LOGFILE)
 <Mar23-2019> <10:00:01>  ADF 2018  RunTime: Mar23-2019 10:00:01  Nodes: 1  Procs: 1
 <Mar23-2019> <10:00:01>  Nitrogen (QZ, all electron, 8S 4P 2D 2F)
 <Mar23-2019> <10:00:01>  RunType   : CREATE
 <Mar23-2019> <10:00:01>  Net Charge: 0 (Nuclei minus Electrons)
 <Mar23-2019> <10:00:01>  Symmetry  : ATOM
  Coordinates
    Atom         X           Y           Z   (Angstrom)
    1.N         0.000000    0.000000    0.000000
 <Mar23-2019> <10:00:01>  >>>> CORORT
 <Mar23-2019> <10:00:01>  >>>> FITINT
 <Mar23-2019> <10:00:01>  >>>> CLSMAT
 <Mar23-2019> <10:00:01>  >>>> ORTHON
 <Mar23-2019> <10:00:01>  >>>> GENPT
 <Mar23-2019> <10:00:01>  Block Length=  81
 <Mar23-2019> <10:00:01>  >>>> PTBAS
 <Mar23-2019> <10:00:01>  >>>> CYCLE
 <Mar23-2019> <10:00:02>  CalcFitR12Fit
 <Mar23-2019> <10:00:02>  CalcFitCoeff
 <Mar23-2019> <10:00:02>              |Error|         MaxErr       Wt(A-DIIS)
 <Mar23-2019> <10:00:02>      1      0.00000000      0.00000000
 <Mar23-2019> <10:00:02>      2      6.85744100      3.41057309    100.0
 <Mar23-2019> <10:00:02>      3      1.80547889      1.46206020    100.0
 <Mar23-2019> <10:00:02>      4      1.11615097      0.48706770    100.0
 <Mar23-2019> <10:00:02>      5      0.53241005      0.30191881    100.0
 <Mar23-2019> <10:00:02>      6      0.26492537      0.13339939    100.0
 <Mar23-2019> <10:00:02>      7      0.12808351      0.06780383     67.5
 <Mar23-2019> <10:00:02>      8      0.04386164      0.02310624     22.3
 <Mar23-2019> <10:00:02>      9      0.00461475      0.00238113      1.4
 <Mar23-2019> <10:00:02>     10      0.00004063      0.00002296      0.0
 <Mar23-2019> <10:00:02>     11      0.00000124      0.00000078      0.0
 <Mar23-2019> <10:00:02>     12      0.00000004      0.00000002      0.0
 <Mar23-2019> <10:00:02>     13      0.00000000      0.00000000      0.0
 <Mar23-2019> <10:00:02>  SCF converged
 <Mar23-2019> <10:00:02>     14      0.00000000      0.00000000      0.0
 <Mar23-2019> <10:00:02>  >>>> POPAN
 <Mar23-2019> <10:00:02>  >>>> DEBYE
 <Mar23-2019> <10:00:02>  NORMAL TERMINATION
 <Mar23-2019> <10:00:02>  END
 
Create C   file=QZ4P-C
XC
  HartreeFock
End
  HartreeFock
RIHartreeFock
  UseMe True
  Quality Excellent
  DependencyThreshold 1.0E-8
End

 *******************************************************************************
 *                                                                             *
 *  -------------------------------------                                      *
 *   Amsterdam Density Functional  (ADF)         2018                          *
 *  -------------------------------------                                      *
 *                                               r70630 2018-11-24             *
 *                                                                             *
 *                                                                             *
 *                              =================                              *
 *                              |               |                              *
 *                              |     A D F     |                              *
 *                              |               |                              *
 *                              =================                              *
 *                                                                             *
 *                                                                             *
 *   Online information and documentation:  https://www.scm.com/support/       *
 *   E-mail:  support@scm.com   info@scm.com                                   *
 *                                                                             *
 *   Scientific publications using ADF results must be properly referenced     *
 *   See the User Manuals (or the web site) for recommended citations          *
 *   The terms and conditions of the End User License Agreement apply to       *
 *   the use of ADF, https://www.scm.com/license-terms/                        *
 *                                                                             *
 **********************  x86_64_linux_intel / intelmpi  ************************
 
 Licensed to: Mr. Vladimir Konjkov / Florida Institute of Technology / Melbourne / Florida / USA
 SCM User ID: u21173
  
 ADF 2018  RunTime: Mar23-2019 10:00:03  Nodes: 1  Procs: 1

 Temporary files are created in /tmp/kid_0.1307065338

 Carbon (QZ, all electron, 7S 4P 2D 2F)



 ===========================
 A T T A C H E D   F I L E S
 ===========================
  
 CREATE - Data File:    QZ4P-C
                        Carbon (QZ, all electron, 7S 4P 2D 2F)



 ===============================
 M O D E L   P A R A M E T E R S
 ===============================
  
 DENSITY FUNCTIONAL POTENTIAL (scf)
    Hybrid:                            HARTREEFOCK                             == Not Default ==

 SPIN  (restricted / unrestr.)
    Molecule:                          Restricted                               

 OTHER ASPECTS
    Relativistic Corrections:          ---                                      

    Nuclear Charge Density Model:      Point Charge Nuclei                      
    Core Treatment:                    Frozen Orbital(s)                        

    Hyperfine or Zeeman Interaction:   ---                                      



 =====================================
 S Y M M E T R Y ,   E L E C T R O N S
 =====================================
  
 Symmetry: ATOM

 Irreducible Representations, including subspecies
 -------------------------------------------------
 S
 P:x  P:y  P:z
 D:z2  D:x2-y2  D:xy  D:xz  D:yz
 F:z3  F:z  F:xyz  F:z2x  F:z2y  F:x  F:y


 Configuration of Valence Electrons
 ==================================

          Occupation Numbers
          -------------------------------------------------
 S        2*2
 P        2
 D        0
 F        0
          -------------------------------------------------

 Total:   6

 Net Charge: 0 (Nuclei minus Electrons)

 Preset values for MO occupations will be applied through SCF cycle no. 1000000
 Thereafter, the program will assign electrons to MOs that are spatially
 similar to the occupied MOs in a "reference" cycle ("KeepOrbitals").
 The reference cycle is always the PREVIOUS cycle: it will evolve with
 the SCF procedure.



 ================================
 (Slater-type)  F U N C T I O N S  ***  (Basis and Fit)  ***
 ================================
  

 Atom Type    1  (C)
 ==============

 Valence Basis Sets:  15
 -----------------------
   1 S   11.400000
   1 S    6.600000
   1 S    4.850000
   2 S    5.900000
   2 S    2.550000
   2 S    1.650000
   2 S    1.160000
   2 P    5.150000
   2 P    2.400000
   2 P    1.300000
   2 P    0.780000
   3 D    2.500000
   3 D    1.500000
   4 F    4.000000
   4 F    2.000000

 Charge Fitting Sets (for the computation of the Coulomb Potential):  32
 -----------------------------------------------------------------------
   1 S   22.800000
   1 S   17.350000
   1 S   13.200000
   1 S    8.790000
   2 S   10.830000
   2 S    7.910000
   2 S    5.780000
   2 S    4.220000
   3 S    4.510000
   3 S    3.460000
   3 S    2.650000
   3 S    2.030000
   3 S    1.560000
   2 P   11.750000
   2 P    7.920000
   2 P    5.330000
   3 P    5.270000
   3 P    3.780000
   3 P    2.710000
   3 P    1.940000
   3 D   10.300000
   3 D    6.750000
   3 D    4.430000
   4 D    3.860000
   4 D    2.660000
   4 F   10.600000
   4 F    6.560000
   4 F    4.060000
   5 F    3.160000
   5 G    9.150000
   5 G    5.040000
   5 G    2.780000


 BAS: List of all Elementary Cartesian Basis Functions
 =====================================================

 The numbering in the list below (to the right of the function characteristics) is referred
 to in print-outs of MO eigenvectors and Mulliken populations in the BAS representation
 (as contrasted to the SFO representation).

 Notes:
 1. The functions are characterized by a polynomial prefactor (powers of x,y,z and r) and
    an exponential decay factor alpha.
 2. Since the basis sets are specific for an atom TYPE, the individual functions occur on
    all atoms of that type.
 3. The word 'Core' in the left margin signals that it is a Core Function (CF) : not a
    degree of freedom in the valence set, but only used to ensure orthogonalization of
    the other valence basis functions on the frozen Core Orbitals.


 (power of) X  Y  Z  R     Alpha  on Atom
            ==========     =====     ==========

 C                                    1
                                  ---------------------------------------------------------------------------
            0  0  0  0    11.400      1
            0  0  0  0     6.600      2
            0  0  0  0     4.850      3
            0  0  0  1     5.900      4
            0  0  0  1     2.550      5
            0  0  0  1     1.650      6
            0  0  0  1     1.160      7
            1  0  0  0     5.150      8
            0  1  0  0     5.150      9
            0  0  1  0     5.150     10
            1  0  0  0     2.400     11
            0  1  0  0     2.400     12
            0  0  1  0     2.400     13
            1  0  0  0     1.300     14
            0  1  0  0     1.300     15
            0  0  1  0     1.300     16
            1  0  0  0     0.780     17
            0  1  0  0     0.780     18
            0  0  1  0     0.780     19
            2  0  0  0     2.500     20
            1  1  0  0     2.500     21
            1  0  1  0     2.500     22
            0  2  0  0     2.500     23
            0  1  1  0     2.500     24
            0  0  2  0     2.500     25
            2  0  0  0     1.500     26
            1  1  0  0     1.500     27
            1  0  1  0     1.500     28
            0  2  0  0     1.500     29
            0  1  1  0     1.500     30
            0  0  2  0     1.500     31
            3  0  0  0     4.000     32
            2  1  0  0     4.000     33
            2  0  1  0     4.000     34
            1  2  0  0     4.000     35
            1  1  1  0     4.000     36
            1  0  2  0     4.000     37
            0  3  0  0     4.000     38
            0  2  1  0     4.000     39
            0  1  2  0     4.000     40
            0  0  3  0     4.000     41
            3  0  0  0     2.000     42
            2  1  0  0     2.000     43
            2  0  1  0     2.000     44
            1  2  0  0     2.000     45
            1  1  1  0     2.000     46
            1  0  2  0     2.000     47
            0  3  0  0     2.000     48
            0  2  1  0     2.000     49
            0  1  2  0     2.000     50
            0  0  3  0     2.000     51

 Total number of charge fitting functions (nprimf)       149
 Total number of Cartesian basis functions (naos)         51
 Total number of Cartesian core functions  (ncos)          0



 BAS: List of all Elementary Cartesian Basis Functions
 =====================================================

 The numbering in the list below (to the right of the function characteristics) is referred
 to in print-outs of MO eigenvectors and Mulliken populations in the BAS representation
 (as contrasted to the SFO representation).

 Notes:
 1. The functions are characterized by a polynomial prefactor (powers of x,y,z and r) and
    an exponential decay factor alpha.
 2. Since the basis sets are specific for an atom TYPE, the individual functions occur on
    all atoms of that type.
 3. The word 'Core' in the left margin signals that it is a Core Function (CF) : not a
    degree of freedom in the valence set, but only used to ensure orthogonalization of
    the other valence basis functions on the frozen Core Orbitals.


 (power of) X  Y  Z  R     Alpha  on Atom
            ==========     =====     ==========

 C                                    1
                                  ---------------------------------------------------------------------------
            0  0  0  0    11.400      1
            0  0  0  0     6.600      2
            0  0  0  0     4.850      3
            0  0  0  1     5.900      4
            0  0  0  1     2.550      5
            0  0  0  1     1.650      6
            0  0  0  1     1.160      7
            1  0  0  0     5.150      8
            0  1  0  0     5.150      9
            0  0  1  0     5.150     10
            1  0  0  0     2.400     11
            0  1  0  0     2.400     12
            0  0  1  0     2.400     13
            1  0  0  0     1.300     14
            0  1  0  0     1.300     15
            0  0  1  0     1.300     16
            1  0  0  0     0.780     17
            0  1  0  0     0.780     18
            0  0  1  0     0.780     19
            2  0  0  0     2.500     20
            1  1  0  0     2.500     21
            1  0  1  0     2.500     22
            0  2  0  0     2.500     23
            0  1  1  0     2.500     24
            0  0  2  0     2.500     25
            2  0  0  0     1.500     26
            1  1  0  0     1.500     27
            1  0  1  0     1.500     28
            0  2  0  0     1.500     29
            0  1  1  0     1.500     30
            0  0  2  0     1.500     31
            3  0  0  0     4.000     32
            2  1  0  0     4.000     33
            2  0  1  0     4.000     34
            1  2  0  0     4.000     35
            1  1  1  0     4.000     36
            1  0  2  0     4.000     37
            0  3  0  0     4.000     38
            0  2  1  0     4.000     39
            0  1  2  0     4.000     40
            0  0  3  0     4.000     41
            3  0  0  0     2.000     42
            2  1  0  0     2.000     43
            2  0  1  0     2.000     44
            1  2  0  0     2.000     45
            1  1  1  0     2.000     46
            1  0  2  0     2.000     47
            0  3  0  0     2.000     48
            0  2  1  0     2.000     49
            0  1  2  0     2.000     50
            0  0  3  0     2.000     51
1
 ***************************************************************************************************



                                              ***********************
                                              *  T E C H N I C A L  *
                                              ***********************
  



 =============================================================
 P A R A L L E L I Z A T I O N  and  V E C T O R I Z A T I O N
 =============================================================
  
 Nr of parallel processes:                                1
 Maximum vector length in NumInt loops:                 128

 IO buffersize (Mb):                                     64.000000



 =====================
 S C F   U P D A T E S
 =====================
  
 Max. nr. of cycles:                               300
 Convergence criterion:                              0.0000000100
   secondary criterion:                              0.0000000100

 Mix parameter (when DIIS does not apply):           0.2000000000
 Special mix parameter for the first cycle:          1.0000000000
 Mixed ADIIS+DIIS will be used
    Max number of expansion vectors:                10
    Pure ADIIS when Max([F,P]) is above              0.1000000000
    Pure DIIS when Max([F,P]) is below               0.0010000000
 Automatic ElectronSmearing (in case of problematic SCF convergence) disabled



 =================
 P R E C I S I O N  ***  (General: NumInt, NeglectFunctionTails, ...)  ***
 =================
  

 NumInt:           Target precision:                12.0000000000
 -------           Initial precision:               10.0000000000
                   Min. precision (optimization):   10.0000000000

 Neglect Functions:          Basis functions:        0.1000000000E-13
 ------------------          Fit functions:          0.1000000000E-13



 ===========================
 L I N E A R   S C A L I N G
 ===========================
  

 Cut-off radii density fit:                        0.1000000000E-97
 Overlap cut-off criterion AO matrix elements:     0.1000000000E-97
 Cut-offs for Coulomb potential and fitted density:0.1000000000E-97
 Cut-off criterion for Coulomb multipole terms:    0.1000000000E-97
 Progressive Convergence parameter:                 0.000000000    
1
 ***************************************************************************************************



                                            ***************************
                                            *  C O M P U T A T I O N  *
                                            ***************************
  

 Number of elements of the density matrix on this node (used, total):      1326      1326



 ===========================================
 Numerical Integration : Fuzzy Cells (Becke)
 ===========================================
  
 Becke grid quality: VERYGOOD       
  
 Lebedev angular grid order:             min:  13 max:  41
 Nr. of radial points:                   min:  81 max:  81

 Total nr. of points:         81
 Nr. of blocks:                1
 Block length:                81
 Nr. of dummy points:          0


 Test of Precision of the Numerical Integration Grid
 ===================================================

 Integral of the Total Core Density:                   0.00000000000000



 ========================
 Density Fitting (zlmFit)
 ========================
  
 ZlmFit Fit Quality: VERYGOOD       
  
 Max L-expansion:                        min:   0 max:   0
 Nr. of radial interpolation points:     min: 170 max: 170



 ======================
 RI Hartree-Fock Scheme
 ======================
  
 Fit Set Quality     : EXCELLENT
 Integration Quality : EXCELLENT
 Threshold Quality   : EXCELLENT
 Response Quality    : DEFAULT
 Is Range Separated  :  F
 
 RIHartreeFock Dependency: number of modified vectors:           0



 =====
 S C F  ***  ScaSCF  ***
 =====
  

 CYCLE    1
 SCF Error: norm([F,P])=      0.000000000000, max([F,P])=      0.000000000000
 orbitals (Q,E):
 ---------------
 S :1...7            ( 2.00   -18.0000)  ( 2.00    -4.4996)  ( 0.00    -1.9994)  ( 0.00    -1.1079)
                     ( 0.00     1.8337)  ( 0.00    20.8417)  ( 0.00   166.7024)
 P :1...4            ( 2.00    -4.4798)  ( 0.00    -1.9842)  ( 0.00    -1.0786)  ( 0.00     4.0356)
 D :1...2            ( 0.00    -1.9859)  ( 0.00    -0.8885)
 F :1...2            ( 0.00    -1.0324)  ( 0.00     3.0925)

 CYCLE    2
  SDIIS (wt  0.000):  1.0000 -0.0000
 A-DIIS (wt  1.000):  0.0000  1.0000
  DIIS coefficients:  0.0000  1.0000
 SCF Error: norm([F,P])=      4.730648037130, max([F,P])=      3.354569737025
 orbitals (Q,E):
 ---------------
 S :1...3            ( 2.00    -9.2189)  ( 2.00    -0.1497)  ( 0.00     0.3174)
 P :1...2            ( 2.00     0.1487)  ( 0.00     0.5567)
 D :1...1            ( 0.00     0.7975)
 F :1...1            ( 0.00     1.6910)

 CYCLE    3
  SDIIS (wt  0.000):  0.1021  0.8979
 A-DIIS (wt  1.000):  0.0000  1.0000
  DIIS coefficients:  0.0000  1.0000
 SCF Error: norm([F,P])=      0.936537112400, max([F,P])=      0.654624723586
 orbitals (Q,E):
 ---------------
 S :1...3            ( 2.00   -12.4895)  ( 2.00    -1.2280)  ( 0.00     0.0496)
 P :1...2            ( 2.00    -0.5144)  ( 0.00     0.0542)
 D :1...1            ( 0.00     0.3752)
 F :1...1            ( 0.00     1.2107)

 CYCLE    4
  SDIIS (wt  0.000): -0.0240  0.2897  0.7343
 A-DIIS (wt  1.000):  0.0000  0.0000  1.0000
  DIIS coefficients:  0.0000  0.0000  1.0000
 SCF Error: norm([F,P])=      0.518101574854, max([F,P])=      0.316553146041
 orbitals (Q,E):
 ---------------
 S :1...3            ( 2.00   -10.9957)  ( 2.00    -0.6114)  ( 0.00     0.2749)
 P :1...2            ( 2.00     0.0016)  ( 0.00     0.2865)
 D :1...1            ( 0.00     0.7060)
 F :1...1            ( 0.00     1.5905)

 CYCLE    5
  SDIIS (wt  0.000): -0.0034 -0.0902  0.2704  0.8232
 A-DIIS (wt  1.000):  0.0000  0.0000  0.0032  0.9968
  DIIS coefficients:  0.0000  0.0000  0.0032  0.9968
 SCF Error: norm([F,P])=      0.241338005743, max([F,P])=      0.161978063200
 orbitals (Q,E):
 ---------------
 S :1...3            ( 2.00   -11.7475)  ( 2.00    -0.8949)  ( 0.00     0.1966)
 P :1...2            ( 2.00    -0.2183)  ( 0.00     0.1959)
 D :1...1            ( 0.00     0.5768)
 F :1...1            ( 0.00     1.4436)

 CYCLE    6
  SDIIS (wt  0.173):  0.0007 -0.0003 -0.1365  0.2170  0.9190
 A-DIIS (wt  0.827):  0.0000  0.0000  0.0000  0.0000  1.0000
  DIIS coefficients:  0.0001 -0.0000 -0.0236  0.0375  0.9860
 SCF Error: norm([F,P])=      0.128523097280, max([F,P])=      0.082906411240
 orbitals (Q,E):
 ---------------
 S :1...3            ( 2.00   -11.3822)  ( 2.00    -0.7468)  ( 0.00     0.2437)
 P :1...2            ( 2.00    -0.1004)  ( 0.00     0.2450)
 D :1...1            ( 0.00     0.6506)
 F :1...1            ( 0.00     1.5281)

 CYCLE    7
  SDIIS (wt  0.691):  0.0002  0.0016 -0.0086 -0.0780  0.2184  0.8664
 A-DIIS (wt  0.309):  0.0000  0.0000  0.0000  0.0000  0.0000  1.0000
  DIIS coefficients:  0.0001  0.0011 -0.0059 -0.0539  0.1509  0.9077
 SCF Error: norm([F,P])=      0.048012518283, max([F,P])=      0.031614011380
 orbitals (Q,E):
 ---------------
 S :1...3            ( 2.00   -11.5016)  ( 2.00    -0.7918)  ( 0.00     0.2310)
 P :1...2            ( 2.00    -0.1363)  ( 0.00     0.2310)
 D :1...1            ( 0.00     0.6296)
 F :1...1            ( 0.00     1.5042)

 CYCLE    8
  SDIIS (wt  0.957): -0.0000  0.0001  0.0035  0.0193 -0.1077 -0.1456  1.2306
 A-DIIS (wt  0.043):  0.0000  0.0000  0.0000  0.0000  0.0000  0.0000  1.0000
  DIIS coefficients: -0.0000  0.0001  0.0033  0.0184 -0.1031 -0.1393  1.2206
 SCF Error: norm([F,P])=      0.007955630835, max([F,P])=      0.005280663931
 orbitals (Q,E):
 ---------------
 S :1...3            ( 2.00   -11.4854)  ( 2.00    -0.7853)  ( 0.00     0.2330)
 P :1...2            ( 2.00    -0.1312)  ( 0.00     0.2331)
 D :1...1            ( 0.00     0.6327)
 F :1...1            ( 0.00     1.5078)

 CYCLE    9
  SDIIS (wt  1.000):  0.0000 -0.0000 -0.0001  0.0009  0.0005 -0.0117 -0.0386  1.0490
  DIIS coefficients:  0.0000 -0.0000 -0.0001  0.0009  0.0005 -0.0117 -0.0386  1.0490
 SCF Error: norm([F,P])=      0.000060014935, max([F,P])=      0.000028497283
 orbitals (Q,E):
 ---------------
 S :1...3            ( 2.00   -11.4856)  ( 2.00    -0.7854)  ( 0.00     0.2330)
 P :1...2            ( 2.00    -0.1313)  ( 0.00     0.2331)
 D :1...1            ( 0.00     0.6327)
 F :1...1            ( 0.00     1.5078)

 CYCLE   10
  SDIIS (wt  1.000): -0.0000  0.0000  0.0000  0.0000 -0.0008  0.0006  0.0133 -0.1825  1.1693
  DIIS coefficients: -0.0000  0.0000  0.0000  0.0000 -0.0008  0.0006  0.0133 -0.1825  1.1693
 SCF Error: norm([F,P])=      0.000004189945, max([F,P])=      0.000002516285
 orbitals (Q,E):
 ---------------
 S :1...3            ( 2.00   -11.4856)  ( 2.00    -0.7854)  ( 0.00     0.2330)
 P :1...2            ( 2.00    -0.1313)  ( 0.00     0.2331)
 D :1...1            ( 0.00     0.6327)
 F :1...1            ( 0.00     1.5078)

 CYCLE   11
  SDIIS (wt  1.000): -0.0000 -0.0000  0.0000  0.0000 -0.0001 -0.0004  0.0112 -0.1243  1.1135
  DIIS coefficients: -0.0000 -0.0000  0.0000  0.0000 -0.0001 -0.0004  0.0112 -0.1243  1.1135
 SCF Error: norm([F,P])=      0.000000216520, max([F,P])=      0.000000121278
 orbitals (Q,E):
 ---------------
 S :1...3            ( 2.00   -11.4856)  ( 2.00    -0.7854)  ( 0.00     0.2330)
 P :1...2            ( 2.00    -0.1313)  ( 0.00     0.2331)
 D :1...1            ( 0.00     0.6327)
 F :1...1            ( 0.00     1.5078)

 CYCLE   12
  SDIIS (wt  1.000):  0.0000  0.0000  0.0000 -0.0006 -0.0038  1.0044
  DIIS coefficients:  0.0000  0.0000  0.0000 -0.0006 -0.0038  1.0044
 SCF Error: norm([F,P])=      0.000000005826, max([F,P])=      0.000000003026
 orbitals (Q,E):
 ---------------
 S :1...3            ( 2.00   -11.4856)  ( 2.00    -0.7854)  ( 0.00     0.2330)
 P :1...2            ( 2.00    -0.1313)  ( 0.00     0.2331)
 D :1...1            ( 0.00     0.6327)
 F :1...1            ( 0.00     1.5078)

 SCF CONVERGED

 CYCLE   13
1
 ***************************************************************************************************



                                                *******************
                                                *  R E S U L T S  *
                                                *******************
  
  
 Hartree-Fock exchange energy:   -4.61818742464702     
 *** Setting up for NEW gradients in Focky
 *** Using FIT density in Focky

 Orbital Energies, per Irrep and Spin:
 ======================================
                        Occup              E (au)              E (eV)       Diff (eV) with prev. cycle
                        -----      --------------------        ------       --------------------------
 S
               1        2.000     -0.11485646142798E+02      -312.540               1.39E-09
               2        2.000     -0.78536896720011E+00       -21.371               5.29E-10
               3        0.000      0.23304030267274E+00         6.341
               4        0.000      0.15133010285716E+01        41.179
               5        0.000      0.67172612722898E+01       182.786
               6        0.000      0.28603910578331E+02       778.352
               7        0.000      0.17770011850337E+03      4835.466
 P
               1        2.000     -0.13126723764501E+00        -3.572              -1.44E-09
               2        0.000      0.23305204226532E+00         6.342
               3        0.000      0.14387623955540E+01        39.151
               4        0.000      0.10692251512226E+02       290.951
 D
               1        0.000      0.63270090730800E+00        17.217
               2        0.000      0.28225733573306E+01        76.806
 F
               1        0.000      0.15078130627991E+01        41.030
               2        0.000      0.75721840349315E+01       206.050


 Partially Occupied:
               1 P                -0.13126723764501E+00
  
 HOMO :        2 S                -0.78536896720011E+00
 LUMO :        3 S                 0.23304030267274E+00
  


 Orbital Energies, all Irreps
 ========================================

 Irrep        no.  (spin)   Occup              E (au)                E (eV)
 ---------------------------------------------------------------------------
 S             1             2.00       -0.11485646142798E+02      -312.5403
 S             2             2.00       -0.78536896720011E+00       -21.3710
 P             1             2.00       -0.13126723764501E+00        -3.5720
 S             3             0.00        0.23304030267274E+00         6.3413
 P             2             0.00        0.23305204226532E+00         6.3417
 D             1             0.00        0.63270090730800E+00        17.2167
 P             3             0.00        0.14387623955540E+01        39.1507
 F             1             0.00        0.15078130627991E+01        41.0297
 S             4             0.00        0.15133010285716E+01        41.1790
 D             2             0.00        0.28225733573306E+01        76.8061
 S             5             0.00        0.67172612722898E+01       182.7860
 F             2             0.00        0.75721840349315E+01       206.0496
 P             4             0.00        0.10692251512226E+02       290.9510
 S             6             0.00        0.28603910578331E+02       778.3520
 S             7             0.00        0.17770011850337E+03      4835.4663


 All Electron Calculation, thus no Orbital Energies of the Core Orbitals are calculated



 =======================================
 M U L L I K E N   P O P U L A T I O N S
 =======================================
  
 The survey below gives for each atom:
 a) the total charge (Z minus electrons)
 b) the net spin polarization (nr of electrons spin-A minus spin-B)
 c) for each spin the atomic electron valence density (integrated) per L-value.

 Atom              Charge    Spin density          S         P         D         F
 ----              ------    ------------       ------    ------    ------    ------
 1 C               0.0000                       4.0000    2.0000    0.0000    0.0000

 Populations of individual BAS functions
 ----------------------------------------
 1 C            0.0365  1.2054  0.2776  0.4046  0.4531  1.3183  0.3045  0.0041  0.0041  0.0041
                0.1408  0.1408  0.1408  0.2689  0.2689  0.2689  0.2529  0.2529  0.2529  0.0000
                0.0000  0.0000  0.0000  0.0000  0.0000  0.0000  0.0000  0.0000  0.0000  0.0000
                0.0000  0.0000  0.0000  0.0000  0.0000  0.0000  0.0000  0.0000  0.0000  0.0000
                0.0000  0.0000  0.0000  0.0000  0.0000  0.0000  0.0000  0.0000  0.0000  0.0000
                0.0000

 Gross Charges per Atom (Z minus electrons)
 ==========================================
             0.0000
 Net Total:  0.00000000



 =======================================================================
 Electrostatic potential at the Nuclei due to electrons and other nuclei
 =======================================================================
  
         Atom                  Potential
         ----                  ---------
     1)   C                  14.53847148
 
 
 ========================
 No memory problems found
 ========================
 
 Maximum number of active allocate calls:         454
 
 *******************************************************************************

                             A D F   E X I T
 NORMAL TERMINATION



 =================
 Timing Statistics
 =================
  
 Total Used :                     CPU=        0.95      System=        0.05     Elapsed=        1.24

 Calls  Section                     ( Mean, Percentage )
 ---------------------------------------------------------------------------------------------------
     3  ><      ................      0.00    0.24             0.00    0.01             0.00    0.18
     1  INIT    ................      0.03    3.38             0.00    3.60             0.28   22.80
     1  GEOMET  ................      0.03    3.13             0.02   42.36             0.05    4.01
     1  INPUTA  ................      0.00    0.24             0.00    1.92             0.00    0.26
     1  MAINSY  ................      0.01    0.96             0.00    2.10             0.01    0.81
     1  SYMFIT  ................      0.00    0.11             0.00    0.04             0.00    0.09
     1  CORORT  ................      0.00    0.08             0.00    0.00             0.00    0.06
     1  SYMORB  ................      0.00    0.08             0.00    0.08             0.00    0.07
     1  FITINT  ................      0.01    1.00             0.00    4.14             0.01    0.92
     1  CLSMAT  ................      0.00    0.17             0.00    0.00             0.00    0.13
     1  ORTHON  ................      0.01    0.54             0.00    0.05             0.01    0.42
     1  GENPT   ................      0.02    1.71             0.00    2.03             0.02    1.38
     1  PTBAS   ................      0.00    0.35             0.00    0.00             0.00    0.26
    13  FOCKY   ................      0.06   79.31             0.00   40.45             0.06   61.88
    13  FOCKTR  ................      0.00    1.15             0.00    0.10             0.00    0.88
    13  SDIIS   ................      0.00    2.95             0.00    3.12             0.00    2.36
     1  COREPS  ................      0.02    2.16             0.00    0.00             0.02    1.65
     1  POPAN   ................      0.01    0.85             0.00    0.00             0.01    0.65
     1  DEBYE   ................      0.00    0.18             0.00    0.00             0.00    0.14
     1  EXIT PROCEDURE .........      0.01    1.39             0.00    0.00             0.01    1.06


 Currently Open Files (EXIT00)
 ====================

 Unit    Access Format  Status   Type       Ident (file)
 -------------------------------------------------------
   3      SEQ    FORM   TRANSP  NORMAL      LOGFILE
                                          ( logfile )


 Buffered I/O statistics
 =======================
 Memory available:                     67108864
 Number of records fitting in memory:     16131
 Input :   0.1% of                        44433  *4k bytes
 Output:   7.8% of                         2624  *4k bytes
 Records from serial files evicted:           0
                    others evicted:           0
 Hash table lookups:      90986 with          0 conflicts (  0.00%)

 ***************************************************************************************************
 (LOGFILE)
 <Mar23-2019> <10:00:01>  ADF 2018  RunTime: Mar23-2019 10:00:01  Nodes: 1  Procs: 1
 <Mar23-2019> <10:00:01>  Nitrogen (QZ, all electron, 8S 4P 2D 2F)
 <Mar23-2019> <10:00:01>  RunType   : CREATE
 <Mar23-2019> <10:00:01>  Net Charge: 0 (Nuclei minus Electrons)
 <Mar23-2019> <10:00:01>  Symmetry  : ATOM
  Coordinates
    Atom         X           Y           Z   (Angstrom)
    1.N         0.000000    0.000000    0.000000
 <Mar23-2019> <10:00:01>  >>>> CORORT
 <Mar23-2019> <10:00:01>  >>>> FITINT
 <Mar23-2019> <10:00:01>  >>>> CLSMAT
 <Mar23-2019> <10:00:01>  >>>> ORTHON
 <Mar23-2019> <10:00:01>  >>>> GENPT
 <Mar23-2019> <10:00:01>  Block Length=  81
 <Mar23-2019> <10:00:01>  >>>> PTBAS
 <Mar23-2019> <10:00:01>  >>>> CYCLE
 <Mar23-2019> <10:00:02>  CalcFitR12Fit
 <Mar23-2019> <10:00:02>  CalcFitCoeff
 <Mar23-2019> <10:00:02>              |Error|         MaxErr       Wt(A-DIIS)
 <Mar23-2019> <10:00:02>      1      0.00000000      0.00000000
 <Mar23-2019> <10:00:02>      2      6.85744100      3.41057309    100.0
 <Mar23-2019> <10:00:02>      3      1.80547889      1.46206020    100.0
 <Mar23-2019> <10:00:02>      4      1.11615097      0.48706770    100.0
 <Mar23-2019> <10:00:02>      5      0.53241005      0.30191881    100.0
 <Mar23-2019> <10:00:02>      6      0.26492537      0.13339939    100.0
 <Mar23-2019> <10:00:02>      7      0.12808351      0.06780383     67.5
 <Mar23-2019> <10:00:02>      8      0.04386164      0.02310624     22.3
 <Mar23-2019> <10:00:02>      9      0.00461475      0.00238113      1.4
 <Mar23-2019> <10:00:02>     10      0.00004063      0.00002296      0.0
 <Mar23-2019> <10:00:02>     11      0.00000124      0.00000078      0.0
 <Mar23-2019> <10:00:02>     12      0.00000004      0.00000002      0.0
 <Mar23-2019> <10:00:02>     13      0.00000000      0.00000000      0.0
 <Mar23-2019> <10:00:02>  SCF converged
 <Mar23-2019> <10:00:02>     14      0.00000000      0.00000000      0.0
 <Mar23-2019> <10:00:02>  >>>> POPAN
 <Mar23-2019> <10:00:02>  >>>> DEBYE
 <Mar23-2019> <10:00:02>  NORMAL TERMINATION
 <Mar23-2019> <10:00:02>  END
 <Mar23-2019> <10:00:03>  ADF 2018  RunTime: Mar23-2019 10:00:03  Nodes: 1  Procs: 1
 <Mar23-2019> <10:00:03>  Carbon (QZ, all electron, 7S 4P 2D 2F)
 <Mar23-2019> <10:00:03>  RunType   : CREATE
 <Mar23-2019> <10:00:03>  Net Charge: 0 (Nuclei minus Electrons)
 <Mar23-2019> <10:00:03>  Symmetry  : ATOM
  Coordinates
    Atom         X           Y           Z   (Angstrom)
    1.C         0.000000    0.000000    0.000000
 <Mar23-2019> <10:00:03>  >>>> CORORT
 <Mar23-2019> <10:00:03>  >>>> FITINT
 <Mar23-2019> <10:00:03>  >>>> CLSMAT
 <Mar23-2019> <10:00:03>  >>>> ORTHON
 <Mar23-2019> <10:00:03>  >>>> GENPT
 <Mar23-2019> <10:00:03>  Block Length=  81
 <Mar23-2019> <10:00:03>  >>>> PTBAS
 <Mar23-2019> <10:00:03>  >>>> CYCLE
 <Mar23-2019> <10:00:03>  CalcFitR12Fit
 <Mar23-2019> <10:00:03>  CalcFitCoeff
 <Mar23-2019> <10:00:03>              |Error|         MaxErr       Wt(A-DIIS)
 <Mar23-2019> <10:00:03>      1      0.00000000      0.00000000
 <Mar23-2019> <10:00:03>      2      4.73064804      3.35456974    100.0
 <Mar23-2019> <10:00:03>      3      0.93653711      0.65462472    100.0
 <Mar23-2019> <10:00:03>      4      0.51810157      0.31655315    100.0
 <Mar23-2019> <10:00:03>      5      0.24133801      0.16197806    100.0
 <Mar23-2019> <10:00:03>      6      0.12852310      0.08290641     82.7
 <Mar23-2019> <10:00:04>      7      0.04801252      0.03161401     30.9
 <Mar23-2019> <10:00:04>      8      0.00795563      0.00528066      4.3
 <Mar23-2019> <10:00:04>      9      0.00006001      0.00002850      0.0
 <Mar23-2019> <10:00:04>     10      0.00000419      0.00000252      0.0
 <Mar23-2019> <10:00:04>     11      0.00000022      0.00000012      0.0
 <Mar23-2019> <10:00:04>     12      0.00000001      0.00000000      0.0
 <Mar23-2019> <10:00:04>  SCF converged
 <Mar23-2019> <10:00:04>     13      0.00000000      0.00000000      0.0
 <Mar23-2019> <10:00:04>  >>>> POPAN
 <Mar23-2019> <10:00:04>  >>>> DEBYE
 <Mar23-2019> <10:00:04>  NORMAL TERMINATION
 <Mar23-2019> <10:00:04>  END


 Parallel Execution: Process Information
 ==============================================================================
 Rank   Node Name                              NodeID   MyNodeRank  NodeMaster
    0   vladimir-kubuntu                          0          0          0
    1   vladimir-kubuntu                          0          1         -1
    2   vladimir-kubuntu                          0          2         -1
    3   vladimir-kubuntu                          0          3         -1
 ==============================================================================


May use up to 7569MB of RAM as shared memory on node 0
 
Title HCN

ATOMS
 C         0.000000000000      0.000000000000      0.000000000000
 N         0.000000000000      0.000000000000      1.171800000000
END

CHARGE -1 0

XC
  HartreeFock
END

RIHartreeFock
  UseMe True
  Quality Excellent
  DependencyThreshold 1.0E-8
End

NUMERICALQUALITY excellent

EPRINT
  SFO NOEIG NOOVL NOORBPOP
  SCF NOPOP
END

NOPRINT BAS FUNCTIONS

TOTALENERGY
NOTOTEN

Fragments
N t21.N
C t21.C
End

 *******************************************************************************
 *                                                                             *
 *  -------------------------------------                                      *
 *   Amsterdam Density Functional  (ADF)         2018                          *
 *  -------------------------------------                                      *
 *                                               r70630 2018-11-24             *
 *                                                                             *
 *                                                                             *
 *                              =================                              *
 *                              |               |                              *
 *                              |     A D F     |                              *
 *                              |               |                              *
 *                              =================                              *
 *                                                                             *
 *                                                                             *
 *   Online information and documentation:  https://www.scm.com/support/       *
 *   E-mail:  support@scm.com   info@scm.com                                   *
 *                                                                             *
 *   Scientific publications using ADF results must be properly referenced     *
 *   See the User Manuals (or the web site) for recommended citations          *
 *   The terms and conditions of the End User License Agreement apply to       *
 *   the use of ADF, https://www.scm.com/license-terms/                        *
 *                                                                             *
 **********************  x86_64_linux_intel / intelmpi  ************************
 
 Licensed to: Mr. Vladimir Konjkov / Florida Institute of Technology / Melbourne / Florida / USA
 SCM User ID: u21173
  
 ADF 2018  RunTime: Mar23-2019 10:00:04  Nodes: 1  Procs: 4

 Temporary files are created in /tmp/kid_0.1182734289


Communication costs MPI_COMM_WORLD:      0.278 usec per message,   0.0036 usec per 8-byte item
Communication costs for intra-node:      0.272 usec per message,   0.0034 usec per 8-byte item

 HCN



 ===========================
 A T T A C H E D   F I L E S
 ===========================
  



 ===============================
 M O D E L   P A R A M E T E R S
 ===============================
  
 DENSITY FUNCTIONAL POTENTIAL (scf)
    Hybrid:                            HARTREEFOCK                             == Not Default ==

 SPIN  (restricted / unrestr.)
    Molecule:                          Restricted                               
    Fragments:                         Restricted                               

 OTHER ASPECTS
    Relativistic Corrections:          ---                                      

    Nuclear Charge Density Model:      Point Charge Nuclei                      
    Core Treatment:                    Frozen Orbital(s)                        

    Hyperfine or Zeeman Interaction:   ---                                      


 Fragment File(s)
 ----------------
 C:
         file : t21.C
         jobid: ADF 2018  RunTime: Mar23-2019 10:00:03  Nodes: 1  Procs: 1
         title: Carbon (QZ, all electron, 7S 4P 2D 2F)
 N:
         file : t21.N
         jobid: ADF 2018  RunTime: Mar23-2019 10:00:01  Nodes: 1  Procs: 1
         title: Nitrogen (QZ, all electron, 8S 4P 2D 2F)



                                        ************************************
                                        *  R U N   T Y P E : SINGLE POINT  *
                                        ************************************
  



 ===============
 G E O M E T R Y  ***  Linear Molecule  ***
 ===============
  

 ATOMS
 =====                            X Y Z                    CHARGE
                                (Angstrom)             Nucl     +Core       At.Mass
                       --------------------------    ----------------       -------
    1  C               0.0000    0.0000    0.0000      6.00      6.00       12.0000
    2  N               0.0000    0.0000    1.1718      7.00      7.00       14.0031


 FRAGMENTS
 =========                                     Atoms in this Fragment     Cart. coord.s (Angstrom)
                                               -------------------------------------------------------
    1  C                                                 1  C            0.0000    0.0000    0.0000
    2  N                                                 2  N            0.0000    0.0000    1.1718


 Interatomic Distance Matrix (Angstrom)
 --------------------------------------

   1)     0.000
   2)     1.172   0.000



 =====================================
 S Y M M E T R Y ,   E L E C T R O N S
 =====================================
  
 Symmetry: C(LIN)

 Irreducible Representations, including subspecies
 -------------------------------------------------
 SIGMA
 PI:x  PI:y
 DELTA:x2-y2  DELTA:xy
 PHI:x3-3xy2  PHI:3x2y-y3


 Configuration of Valence Electrons
 ==================================
 ( determined in the SCF procedure )

 Total:   14

 Net Charge: -1 (Nuclei minus Electrons)

 Aufbau principle for MO occupations will be applied through SCF cycle no.     150
 Thereafter, the program will assign electrons to MOs that are spatially
 similar to the occupied MOs in a "reference" cycle ("KeepOrbitals").
 The reference cycle is always the PREVIOUS cycle: it will evolve with
 the SCF procedure.



 =======
 S F O s  ***  (Symmetrized Fragment Orbitals)  ***
 =======
  
 SFOs are linear combinations of (valence) Fragment Orbitals (FOs), such that the SFOs transform as the
 irreducible representations of the (molecular) symmetry group. Each SFO is therefore characterized by
 an irrep of the molecule and by a few (or only one) generating FOs.
 The SFOs constitute a symmetry-adapted basis for the Fock matrix. The MO eigenvector coefficients in
 this basis provide a direct interpretation of the MOs in terms of Frontier Orbital Theory.

 The SFOs are combined with auxiliary Core Functions (CFs) to ensure orthogonalization on the (frozen)
 Core Orbitals (COs). The Core-orthogonalized SFOs (CSFOs) constitute the true Fock basis.

 The FOs, and hence also the (C)SFOs are combinations of the elementary basis functions (BAS). The basis
 functions that participate in the description of the SFOs depend on the irrep. The indices of the
 involved functions are printed below for each irrep.
 (The complete list of primitive basis functions is printed in another section)

 Total nr. of (C)SFOs (summation over all irreps) :    87

 NOTE: a (C)SFO that is defined as a combination of more than one FO is usually NOT normalized.



                                       === SIGMA ===
 Nr. of SFOs :   31
 Cartesian basis functions that participate in this irrep (total number =    47) :
      1     2     3     4     5     6     7    10    13    16
     19    25    31    20    23    26    29    41    51    34
     39    44    49    52    53    54    55    56    57    58
     59    62    65    68    71    77    83    72    75    78
     81    93   103    86    91    96   101

    SFO  (index         Fragment          Generating    Expansion in Fragment Orbitals
  indx  incl.CFs)   Occup   Orb.Energy   FragmentType  Coeff.   Orbital     on Fragment
 --------------------------------------------------------------------------------------
     1       1      2.000     -11.486 au  C             1.00      1 S               1
                        (    -312.540 eV)
     2       2      2.000      -0.785 au  C             1.00      2 S               1
                        (     -21.371 eV)
     3       3       --         0.233 au  C             1.00      3 S               1
                        (       6.341 eV)
     4       4       --         1.513 au  C             1.00      4 S               1
                        (      41.179 eV)
     5       5       --         6.717 au  C             1.00      5 S               1
                        (     182.786 eV)
     6       6       --        28.604 au  C             1.00      6 S               1
                        (     778.352 eV)
     7       7       --       177.700 au  C             1.00      7 S               1
                        (    4835.466 eV)
     8       8      0.667      -0.131 au  C             1.00      1 P:z             1
                        (      -3.572 eV)
     9       9       --         0.233 au  C             1.00      2 P:z             1
                        (       6.342 eV)
    10      10       --         1.439 au  C             1.00      3 P:z             1
                        (      39.151 eV)
    11      11       --        10.692 au  C             1.00      4 P:z             1
                        (     290.951 eV)
    12      12       --         0.633 au  C             1.00      1 D:z2            1
                        (      17.217 eV)
    13      13       --         2.823 au  C             1.00      2 D:z2            1
                        (      76.806 eV)
    14      14       --         1.508 au  C             1.00      1 F:z3            1
                        (      41.030 eV)
    15      15       --         7.572 au  C             1.00      2 F:z3            1
                        (     206.050 eV)
    16      16      2.000     -15.823 au  N             1.00      1 S               2
                        (    -430.556 eV)
    17      17      2.000      -1.038 au  N             1.00      2 S               2
                        (     -28.247 eV)
    18      18       --         0.080 au  N             1.00      3 S               2
                        (       2.172 eV)
    19      19       --         0.584 au  N             1.00      4 S               2
                        (      15.887 eV)
    20      20       --         2.598 au  N             1.00      5 S               2
                        (      70.704 eV)
    21      21       --        10.022 au  N             1.00      6 S               2
                        (     272.725 eV)
    22      22       --        39.952 au  N             1.00      7 S               2
                        (    1087.160 eV)
    23      23       --       241.322 au  N             1.00      8 S               2
[...]
 PHI           1             0.00        0.16866637624131E+01        45.8965
 PI            7             0.00        0.18289037574589E+01        49.7670
 SIGMA        14             0.00        0.18622682297865E+01        50.6749
 PI            8             0.00        0.19785216582608E+01        53.8383
 DELTA         3             0.00        0.19951301681577E+01        54.2903
 SIGMA        15             0.00        0.22019398241597E+01        59.9178
 PHI           2             0.00        0.22058215373863E+01        60.0235
 PI            9             0.00        0.26118637579893E+01        71.0724
 SIGMA        16             0.00        0.27207656913144E+01        74.0358
 DELTA         4             0.00        0.30099478686519E+01        81.9048
 DELTA         5             0.00        0.30643873902727E+01        83.3862
 SIGMA        17             0.00        0.31744247430216E+01        86.3805
 DELTA         6             0.00        0.36095923022867E+01        98.2220
 PI           10             0.00        0.37267009078284E+01       101.4087
 SIGMA        18             0.00        0.37597866414540E+01       102.3090
 SIGMA        19             0.00        0.38350175636798E+01       104.3561
 PI           11             0.00        0.40577946132927E+01       110.4182
 SIGMA        20             0.00        0.46604993310311E+01       126.8186
 PI           12             0.00        0.47148111612038E+01       128.2965
 SIGMA        21             0.00        0.69268175545818E+01       188.4883
 DELTA         7             0.00        0.76880467410772E+01       209.2024
 SIGMA        22             0.00        0.77597218616465E+01       211.1528
 PHI           3             0.00        0.77976866124630E+01       212.1858
 PI           13             0.00        0.78094857389863E+01       212.5069
 SIGMA        23             0.00        0.82046595834548E+01       223.2601
 PHI           4             0.00        0.83399395162624E+01       226.9413
 DELTA         8             0.00        0.93051356380966E+01       253.2056
 PI           14             0.00        0.96339561400931E+01       262.1533
 SIGMA        24             0.00        0.10278758418407E+02       279.6992
 SIGMA        25             0.00        0.11700620117757E+02       318.3901
 PI           15             0.00        0.11933800342606E+02       324.7352
 SIGMA        26             0.00        0.16511730745599E+02       449.3071
 PI           16             0.00        0.19097095659081E+02       519.6584
 SIGMA        27             0.00        0.20750523531894E+02       564.6505
 SIGMA        28             0.00        0.30753593583965E+02       836.8479
 SIGMA        29             0.00        0.41740995392609E+02      1135.8303
 SIGMA        30             0.00        0.18367170133066E+03      4997.9613
 SIGMA        31             0.00        0.24622286792176E+03      6700.0651


 All Electron Calculation, thus no Orbital Energies of the Core Orbitals are calculated



 =======================
 T O T A L   E N E R G Y  ***  (contributions)  ***
 =======================
  

*** Note ***

The requirements to the integration accuracy are somewhat higher than for bond energies.
One can expect an accuracy of roughly (accint-2) decimal places, where accint is the
general integration accuracy parameter.
The Coulomb energy is the sum of the Hartree energy (electron-electron Coulomb interaction)
and the nuclear-electron attraction energy. It includes the correction for the first-order
fit error in the Hartree energy.
The potential energy is the sum of the nuclear repulsion energy, the Coulomb energy,
and the exchange-correlation energy.

Kinetic energy           =           92.244069885502

Nuclear repulsion energy =           18.966925118316
Coulomb energy           =         -191.674399792355
XC energy                =          -11.884269405294
Total potential energy   =         -184.591744079333

----------------------------------------------------
Total energy             =          -92.347674193831
Virial theorem           =            2.001123154133
----------------------------------------------------

 Gross Charges per Atom (Z minus electrons)
 ==========================================
            -0.1106   -0.8894
 Net Total: -1.00000000



 =================================================================
 M U L T I P O L E   D E R I V E D   C H A R G E   A N A L Y S I S
 =================================================================

 This charge analysis uses the atomic multipoles (obtained from the fitted density) up to some level X,
 and reconstructs these multipoles exactly (up to level X) by distributing charges over all atoms.
 This is achieved by using Lagrange multipliers and a weight function to keep the multipoles local.

 Dummy atoms can be included (by setting INCDUM in MDC-block to 1) to obtain a fractional charge.
 This is generally useful and necessary only for small symmetrical molecules, when there are not
 enough degrees of freedom to reconstruct the multipoles.

 Since the atomic multipoles are reconstructed up to level X,
 the molecular multipoles are represented also up to level X.
 The recommended level is to reconstruct up to quadrupole : -> MDC-q charges.

 See: M. Swart, P.Th. van Duijnen, J.G. Snijders, J.Comput.Chem., (2001), p. 79-88.

 ------------------------------------------------------------- 
 Atomic electronic multipole moments from SCF equations (a.u.)
 ------------------------------------------------------------- 

   atom        charge        dip-x     dip-y     dip-z      quad-xx   quad-xy   quad-xz   quad-yy   quad-yz   quad-zz
 --------------------------------------------------------------------------------------------------------------------
    1 C     -0.416649     0.000000  0.000000  0.810842    -0.016971  0.000000  0.000000 -0.016971 -0.000000  0.033942
    2 N     -0.583351    -0.000000 -0.000000 -0.544386    -0.406494 -0.000000 -0.000000 -0.406494  0.000000  0.812987

 --------------------------------------- 
 Multipole derived atomic charges (a.u.)
 --------------------------------------- 

 The MDC-m charges are just the Monopole terms in the multipole expansion, while for the MDC-d charges
 also the Dipoles are reconstructed. The usually preferred charges are the MDC-q charges.
 These reconstruct the Monopoles, Dipoles and Quadrupoles (both atomic AND molecular).

        Atom    Level:     MDC-m        MDC-d        MDC-q
 ---------------------------------------------------------
     1     C           -0.416649    -0.536979    -0.291190
     2     N           -0.583351    -0.463021    -0.708810

 ------------------------------------------------ 
 Average absolute deviations in atomic multipoles
 ------------------------------------------------ 

 Stated here are the average differences between the atomic multipoles
 and the reconstructed atomic multipoles (from the distributed charges).
 If these values are not zero, this means there are not enough degrees of freedom,
 to be able to reconstruct the atomic multipoles. (This usually happens only
 for small and/or highly symmetric molecules). If this is the case, one could add
 dummy atoms as extra point charges (and setting INCDUM in MDC-block to 1).

 Level:                                 MDC-d        MDC-q
 ---------------------------------------------------------
 Charge   (a.u.)                       0.0000       0.0000
 Dipole   (Debye)                      0.0000       0.3628
 Quad.    (a.u.)                       0.3590       0.0430

 --------------------------------------- 
 Represented molecular multipole moments
 --------------------------------------- 

 Given here are the Molecular multipole moments from the atomic charges, and from the Fit Density.
 Note that the atomic charges represent the latter, NOT the ones from the Exact density.

            Q (a.u.)             Dipole moment (Debye)                                          Quadrupole moment (a.u.)
                                 x         y         z              xx        xy        xz        yy        yz        zz
------------------------------------------------------------------------------------------------------------------------
MDC-m        -1.0000        0.0000    0.0000   -3.2833          1.4302    0.0000    0.0000    1.4302    0.0000   -2.8605
MDC-d        -1.0000        0.0000    0.0000   -2.6061          1.1352    0.0000    0.0000    1.1352    0.0000   -2.2704
MDC-q        -1.0000        0.0000    0.0000   -3.9895          1.7378    0.0000    0.0000    1.7378    0.0000   -3.4756
 
Fit.Dens.    -1.0000       -0.0000   -0.0000   -2.6061          2.2122   -0.0000   -0.0000    2.2122   -0.0000   -4.4245



 =============
 Dipole Moment  ***  (Debye)  ***
 =============
  
 Vector   :         0.00000000      0.00000000     -2.60606570
 Magnitude:         2.60606570

 This molecular dipole moment is calculated with analytic integration
 ************************************************************************************
 Since the molecule is NOT NEUTRAL, the dipole moment depends on the choice of origin
 ************************************************************************************



 =========================================
 Quadrupole Moment (Buckingham convention)  ***  (a.u.)  ***
 =========================================
  
      quad-xx        quad-xy        quad-xz        quad-yy        quad-yz        quad-zz
      2.21223944     0.00000000     0.00000000     2.21223944     0.00000000    -4.42447888

 This molecular quadrupole moment is calculated with analytic integration



 =======================================================================
 Electrostatic potential at the Nuclei due to electrons and other nuclei
 =======================================================================
  
         Atom                  Potential
         ----                  ---------
     1)   C                  15.02406193
     2)   N                  18.65786774
 
 
 ========================
 No memory problems found
 ========================
 
 Maximum number of active allocate calls:         867
 
 *******************************************************************************

                             A D F   E X I T
 NORMAL TERMINATION



 =================
 Timing Statistics
 =================
  
 Total Used :                     CPU=       30.44      System=        0.45     Elapsed=       31.32

 Calls  Section                     ( Mean, Percentage )
 ---------------------------------------------------------------------------------------------------
     3  ><      ................      0.00    0.01             0.00    0.25             0.00    0.01
     1  INIT    ................      0.45    1.49             0.00    0.80             0.71    2.27
     1  GEOMET  ................      0.03    0.10             0.03    6.63             0.06    0.20
     1  FRAGM   ................      0.01    0.04             0.00    0.63             0.02    0.06
     1  INPUTA  ................      0.00    0.01             0.00    0.00             0.00    0.01
     1  ATDEN   ................      0.00    0.01             0.00    0.22             0.01    0.02
     1  MAINSY  ................      0.01    0.04             0.00    0.44             0.02    0.05
     1  SYMFIT  ................      0.00    0.00             0.00    0.00             0.00    0.00
     1  CORORT  ................      0.00    0.00             0.00    0.00             0.00    0.00
     1  SYMORB  ................      0.00    0.01             0.00    0.00             0.00    0.01
     1  FITINT  ................      0.01    0.04             0.00    0.21             0.01    0.04
     1  CLSMAT  ................      0.05    0.18             0.03    6.19             0.08    0.26
     1  ORTHON  ................      0.02    0.05             0.00    0.44             0.02    0.06
     1  GENPT   ................      0.09    0.28             0.02    3.75             0.10    0.33
     1  PTBAS   ................      0.09    0.28             0.00    0.23             0.09    0.28
    13  FOCKY   ................      2.14   91.26             0.03   72.88             2.17   90.22
    13  FOCKTR  ................      0.00    0.11             0.00    2.13             0.00    0.13
    13  SDIIS   ................      0.00    0.11             0.00    1.22             0.00    0.12
     1  COREPS  ................      1.64    5.40             0.01    1.99             1.66    5.31
     1  POPAN   ................      0.15    0.48             0.01    1.98             0.16    0.52
     1  DEBYE   ................      0.01    0.02             0.00    0.00             0.01    0.02
     1  EXIT PROCEDURE .........      0.03    0.09             0.00    0.00             0.03    0.09


 Currently Open Files (EXIT00)
 ====================

 Unit    Access Format  Status   Type       Ident (file)
 -------------------------------------------------------
   3      SEQ    FORM   TRANSP  NORMAL      LOGFILE
                                          ( logfile )


 Buffered I/O statistics
 =======================
 Memory available:                     67108864
 Number of records fitting in memory:     16131
 Input :   0.1% of                       117832  *4k bytes
 Output:   4.0% of                        14305  *4k bytes
 Records from serial files evicted:           0
                    others evicted:           0
 Hash table lookups:     291888 with          0 conflicts (  0.00%)

 ***************************************************************************************************
 (LOGFILE)
 <Mar23-2019> <10:00:01>  ADF 2018  RunTime: Mar23-2019 10:00:01  Nodes: 1  Procs: 1
 <Mar23-2019> <10:00:01>  Nitrogen (QZ, all electron, 8S 4P 2D 2F)
 <Mar23-2019> <10:00:01>  RunType   : CREATE
 <Mar23-2019> <10:00:01>  Net Charge: 0 (Nuclei minus Electrons)
 <Mar23-2019> <10:00:01>  Symmetry  : ATOM
  Coordinates
    Atom         X           Y           Z   (Angstrom)
    1.N         0.000000    0.000000    0.000000
 <Mar23-2019> <10:00:01>  >>>> CORORT
 <Mar23-2019> <10:00:01>  >>>> FITINT
 <Mar23-2019> <10:00:01>  >>>> CLSMAT
 <Mar23-2019> <10:00:01>  >>>> ORTHON
 <Mar23-2019> <10:00:01>  >>>> GENPT
 <Mar23-2019> <10:00:01>  Block Length=  81
 <Mar23-2019> <10:00:01>  >>>> PTBAS
 <Mar23-2019> <10:00:01>  >>>> CYCLE
 <Mar23-2019> <10:00:02>  CalcFitR12Fit
 <Mar23-2019> <10:00:02>  CalcFitCoeff
 <Mar23-2019> <10:00:02>              |Error|         MaxErr       Wt(A-DIIS)
 <Mar23-2019> <10:00:02>      1      0.00000000      0.00000000
 <Mar23-2019> <10:00:02>      2      6.85744100      3.41057309    100.0
 <Mar23-2019> <10:00:02>      3      1.80547889      1.46206020    100.0
 <Mar23-2019> <10:00:02>      4      1.11615097      0.48706770    100.0
 <Mar23-2019> <10:00:02>      5      0.53241005      0.30191881    100.0
 <Mar23-2019> <10:00:02>      6      0.26492537      0.13339939    100.0
 <Mar23-2019> <10:00:02>      7      0.12808351      0.06780383     67.5
 <Mar23-2019> <10:00:02>      8      0.04386164      0.02310624     22.3
 <Mar23-2019> <10:00:02>      9      0.00461475      0.00238113      1.4
 <Mar23-2019> <10:00:02>     10      0.00004063      0.00002296      0.0
 <Mar23-2019> <10:00:02>     11      0.00000124      0.00000078      0.0
 <Mar23-2019> <10:00:02>     12      0.00000004      0.00000002      0.0
 <Mar23-2019> <10:00:02>     13      0.00000000      0.00000000      0.0
 <Mar23-2019> <10:00:02>  SCF converged
 <Mar23-2019> <10:00:02>     14      0.00000000      0.00000000      0.0
 <Mar23-2019> <10:00:02>  >>>> POPAN
 <Mar23-2019> <10:00:02>  >>>> DEBYE
 <Mar23-2019> <10:00:02>  NORMAL TERMINATION
 <Mar23-2019> <10:00:02>  END
 <Mar23-2019> <10:00:03>  ADF 2018  RunTime: Mar23-2019 10:00:03  Nodes: 1  Procs: 1
 <Mar23-2019> <10:00:03>  Carbon (QZ, all electron, 7S 4P 2D 2F)
 <Mar23-2019> <10:00:03>  RunType   : CREATE
 <Mar23-2019> <10:00:03>  Net Charge: 0 (Nuclei minus Electrons)
 <Mar23-2019> <10:00:03>  Symmetry  : ATOM
  Coordinates
    Atom         X           Y           Z   (Angstrom)
    1.C         0.000000    0.000000    0.000000
 <Mar23-2019> <10:00:03>  >>>> CORORT
 <Mar23-2019> <10:00:03>  >>>> FITINT
 <Mar23-2019> <10:00:03>  >>>> CLSMAT
 <Mar23-2019> <10:00:03>  >>>> ORTHON
 <Mar23-2019> <10:00:03>  >>>> GENPT
 <Mar23-2019> <10:00:03>  Block Length=  81
 <Mar23-2019> <10:00:03>  >>>> PTBAS
 <Mar23-2019> <10:00:03>  >>>> CYCLE
 <Mar23-2019> <10:00:03>  CalcFitR12Fit
 <Mar23-2019> <10:00:03>  CalcFitCoeff
 <Mar23-2019> <10:00:03>              |Error|         MaxErr       Wt(A-DIIS)
 <Mar23-2019> <10:00:03>      1      0.00000000      0.00000000
 <Mar23-2019> <10:00:03>      2      4.73064804      3.35456974    100.0
 <Mar23-2019> <10:00:03>      3      0.93653711      0.65462472    100.0
 <Mar23-2019> <10:00:03>      4      0.51810157      0.31655315    100.0
 <Mar23-2019> <10:00:03>      5      0.24133801      0.16197806    100.0
 <Mar23-2019> <10:00:03>      6      0.12852310      0.08290641     82.7
 <Mar23-2019> <10:00:04>      7      0.04801252      0.03161401     30.9
 <Mar23-2019> <10:00:04>      8      0.00795563      0.00528066      4.3
 <Mar23-2019> <10:00:04>      9      0.00006001      0.00002850      0.0
 <Mar23-2019> <10:00:04>     10      0.00000419      0.00000252      0.0
 <Mar23-2019> <10:00:04>     11      0.00000022      0.00000012      0.0
 <Mar23-2019> <10:00:04>     12      0.00000001      0.00000000      0.0
 <Mar23-2019> <10:00:04>  SCF converged
 <Mar23-2019> <10:00:04>     13      0.00000000      0.00000000      0.0
 <Mar23-2019> <10:00:04>  >>>> POPAN
 <Mar23-2019> <10:00:04>  >>>> DEBYE
 <Mar23-2019> <10:00:04>  NORMAL TERMINATION
 <Mar23-2019> <10:00:04>  END
 <Mar23-2019> <10:00:04>  ADF 2018  RunTime: Mar23-2019 10:00:04  Nodes: 1  Procs: 4
 <Mar23-2019> <10:00:05>  HCN
 <Mar23-2019> <10:00:05>  RunType   : SINGLE POINT
 <Mar23-2019> <10:00:05>  Net Charge: -1 (Nuclei minus Electrons)
 <Mar23-2019> <10:00:05>  Symmetry  : C(LIN)
 <Mar23-2019> <10:00:05>  >>>> FRAGM
  Coordinates
    Atom         X           Y           Z   (Angstrom)
    1.C         0.000000    0.000000    0.000000
    2.N         0.000000    0.000000    1.171800
 <Mar23-2019> <10:00:05>  >>>> CORORT
 <Mar23-2019> <10:00:05>  >>>> FITINT
 <Mar23-2019> <10:00:05>  >>>> CLSMAT
 <Mar23-2019> <10:00:05>  >>>> ORTHON
 <Mar23-2019> <10:00:05>  >>>> GENPT
 <Mar23-2019> <10:00:05>  Block Length= 128
 <Mar23-2019> <10:00:05>  >>>> PTBAS
 <Mar23-2019> <10:00:05>  >>>> CYCLE
 <Mar23-2019> <10:00:06>  CalcFitR12Fit
 <Mar23-2019> <10:00:06>  CalcFitCoeff
 <Mar23-2019> <10:00:11>              |Error|         MaxErr       Wt(A-DIIS)
 <Mar23-2019> <10:00:11>      1      2.91509841      1.55140721
 <Mar23-2019> <10:00:13>      2      0.64615749      0.20753389    100.0
 <Mar23-2019> <10:00:15>      3      0.42271212      0.13839692    100.0
 <Mar23-2019> <10:00:17>      4      0.26747408      0.08250760     82.3
 <Mar23-2019> <10:00:19>      5      0.18288251      0.07098686     70.7
 <Mar23-2019> <10:00:20>      6      0.05140703      0.01985581     19.0
 <Mar23-2019> <10:00:22>      7      0.01018505      0.00455443      3.6
 <Mar23-2019> <10:00:24>      8      0.00084818      0.00022243      0.0
 <Mar23-2019> <10:00:26>      9      0.00011056      0.00004279      0.0
 <Mar23-2019> <10:00:28>     10      0.00002482      0.00001192      0.0
 <Mar23-2019> <10:00:30>     11      0.00000320      0.00000121      0.0
 <Mar23-2019> <10:00:31>     12      0.00000089      0.00000040      0.0
 <Mar23-2019> <10:00:33>  SCF converged
 <Mar23-2019> <10:00:33>     13      0.00000015      0.00000007      0.0
 <Mar23-2019> <10:00:35>   Total energy        -92.34767419 a.u.
 <Mar23-2019> <10:00:35>  >>>> POPAN
 <Mar23-2019> <10:00:35>  >>>> DEBYE
 <Mar23-2019> <10:00:35>  NORMAL TERMINATION
 <Mar23-2019> <10:00:35>  END
