 
Create He   file=TZ2P-He
XC
  HartreeFock
End
  HartreeFock

 *******************************************************************************
 *                                                                             *
 *  -------------------------------------                                      *
 *   Amsterdam Density Functional  (ADF)         2018                          *
 *  -------------------------------------                                      *
 *                                               r70630 2018-11-24             *
 *                                                                             *
 *                                                                             *
 *                              =================                              *
 *                              |               |                              *
 *                              |     A D F     |                              *
 *                              |               |                              *
 *                              =================                              *
 *                                                                             *
 *                                                                             *
 *   Online information and documentation:  https://www.scm.com/support/       *
 *   E-mail:  support@scm.com   info@scm.com                                   *
 *                                                                             *
 *   Scientific publications using ADF results must be properly referenced     *
 *   See the User Manuals (or the web site) for recommended citations          *
 *   The terms and conditions of the End User License Agreement apply to       *
 *   the use of ADF, https://www.scm.com/license-terms/                        *
 *                                                                             *
 **********************  x86_64_linux_intel / intelmpi  ************************
 
 Licensed to: Mr. Vladimir Konjkov / Florida Institute of Technology / Melbourne / Florida / USA
 SCM User ID: u21173
  
 ADF 2018  RunTime: Mar23-2019 10:00:03  Nodes: 1  Procs: 1

 Temporary files are created in /tmp/kid_0.1727851493

 Helium (TZ2P)



 ===========================
 A T T A C H E D   F I L E S
 ===========================
  
 CREATE - Data File:    TZ2P-He
                        Helium (TZ2P)



 ===============================
 M O D E L   P A R A M E T E R S
 ===============================
  
 DENSITY FUNCTIONAL POTENTIAL (scf)
    Hybrid:                            HARTREEFOCK                             == Not Default ==

 SPIN  (restricted / unrestr.)
    Molecule:                          Restricted                               

 OTHER ASPECTS
    Relativistic Corrections:          ---                                      

    Nuclear Charge Density Model:      Point Charge Nuclei                      
    Core Treatment:                    Frozen Orbital(s)                        

    Hyperfine or Zeeman Interaction:   ---                                      



 =====================================
 S Y M M E T R Y ,   E L E C T R O N S
 =====================================
  
 Symmetry: ATOM

 Irreducible Representations, including subspecies
 -------------------------------------------------
 S
 P:x  P:y  P:z
 D:z2  D:x2-y2  D:xy  D:xz  D:yz
 F:z3  F:z  F:xyz  F:z2x  F:z2y  F:x  F:y


 Configuration of Valence Electrons
 ==================================

          Occupation Numbers
          -------------------------------------------------
 S        2
 P        0
 D        0
 F        0
          -------------------------------------------------

 Total:   2

 Net Charge: 0 (Nuclei minus Electrons)

 Preset values for MO occupations will be applied through SCF cycle no. 1000000
 Thereafter, the program will assign electrons to MOs that are spatially
 similar to the occupied MOs in a "reference" cycle ("KeepOrbitals").
 The reference cycle is always the PREVIOUS cycle: it will evolve with
 the SCF procedure.



 ================================
 (Slater-type)  F U N C T I O N S  ***  (Basis and Fit)  ***
 ================================
  

 Atom Type    1  (He)
 ==============

 Valence Basis Sets:   5
 -----------------------
   1 S    1.150000
   1 S    1.650000
   1 S    3.050000
   2 P    1.000000
   3 D    2.000000

 Charge Fitting Sets (for the computation of the Coulomb Potential):  12
 -----------------------------------------------------------------------
   1 S    6.100000
   1 S    4.410000
   1 S    3.180000
   1 S    2.300000
   2 S    1.500000
   2 P    4.000000
   2 P    2.650000
   2 P    1.750000
   3 D    4.000000
   3 D    2.500000
   4 F    3.000000
   5 G    4.000000


 BAS: List of all Elementary Cartesian Basis Functions
 =====================================================

 The numbering in the list below (to the right of the function characteristics) is referred
 to in print-outs of MO eigenvectors and Mulliken populations in the BAS representation
 (as contrasted to the SFO representation).

 Notes:
 1. The functions are characterized by a polynomial prefactor (powers of x,y,z and r) and
    an exponential decay factor alpha.
 2. Since the basis sets are specific for an atom TYPE, the individual functions occur on
    all atoms of that type.
 3. The word 'Core' in the left margin signals that it is a Core Function (CF) : not a
    degree of freedom in the valence set, but only used to ensure orthogonalization of
    the other valence basis functions on the frozen Core Orbitals.


 (power of) X  Y  Z  R     Alpha  on Atom
            ==========     =====     ==========

 He                                   1
                                  ---------------------------------------------------------------------------
            0  0  0  0     1.150      1
            0  0  0  0     1.650      2
            0  0  0  0     3.050      3
            1  0  0  0     1.000      4
            0  1  0  0     1.000      5
            0  0  1  0     1.000      6
            2  0  0  0     2.000      7
            1  1  0  0     2.000      8
            1  0  1  0     2.000      9
            0  2  0  0     2.000     10
            0  1  1  0     2.000     11
            0  0  2  0     2.000     12

 Total number of charge fitting functions (nprimf)        51
 Total number of Cartesian basis functions (naos)         12
 Total number of Cartesian core functions  (ncos)          0



 BAS: List of all Elementary Cartesian Basis Functions
 =====================================================

 The numbering in the list below (to the right of the function characteristics) is referred
 to in print-outs of MO eigenvectors and Mulliken populations in the BAS representation
 (as contrasted to the SFO representation).

 Notes:
 1. The functions are characterized by a polynomial prefactor (powers of x,y,z and r) and
    an exponential decay factor alpha.
 2. Since the basis sets are specific for an atom TYPE, the individual functions occur on
    all atoms of that type.
 3. The word 'Core' in the left margin signals that it is a Core Function (CF) : not a
    degree of freedom in the valence set, but only used to ensure orthogonalization of
    the other valence basis functions on the frozen Core Orbitals.


 (power of) X  Y  Z  R     Alpha  on Atom
            ==========     =====     ==========

 He                                   1
                                  ---------------------------------------------------------------------------
            0  0  0  0     1.150      1
            0  0  0  0     1.650      2
            0  0  0  0     3.050      3
            1  0  0  0     1.000      4
            0  1  0  0     1.000      5
            0  0  1  0     1.000      6
            2  0  0  0     2.000      7
            1  1  0  0     2.000      8
            1  0  1  0     2.000      9
            0  2  0  0     2.000     10
            0  1  1  0     2.000     11
            0  0  2  0     2.000     12
1
 ***************************************************************************************************



                                              ***********************
                                              *  T E C H N I C A L  *
                                              ***********************
  



 =============================================================
 P A R A L L E L I Z A T I O N  and  V E C T O R I Z A T I O N
 =============================================================
  
 Nr of parallel processes:                                1
 Maximum vector length in NumInt loops:                 128

 IO buffersize (Mb):                                     64.000000



 =====================
 S C F   U P D A T E S
 =====================
  
 Max. nr. of cycles:                               300
 Convergence criterion:                              0.0000000100
   secondary criterion:                              0.0000000100

 Mix parameter (when DIIS does not apply):           0.2000000000
 Special mix parameter for the first cycle:          1.0000000000
 Mixed ADIIS+DIIS will be used
    Max number of expansion vectors:                10
    Pure ADIIS when Max([F,P]) is above              0.1000000000
    Pure DIIS when Max([F,P]) is below               0.0010000000
 Automatic ElectronSmearing (in case of problematic SCF convergence) disabled



 =================
 P R E C I S I O N  ***  (General: NumInt, NeglectFunctionTails, ...)  ***
 =================
  

 NumInt:           Target precision:                12.0000000000
 -------           Initial precision:               10.0000000000
                   Min. precision (optimization):   10.0000000000

 Neglect Functions:          Basis functions:        0.1000000000E-13
 ------------------          Fit functions:          0.1000000000E-13



 ===========================
 L I N E A R   S C A L I N G
 ===========================
  

 Cut-off radii density fit:                        0.1000000000E-97
 Overlap cut-off criterion AO matrix elements:     0.1000000000E-97
 Cut-offs for Coulomb potential and fitted density:0.1000000000E-97
 Cut-off criterion for Coulomb multipole terms:    0.1000000000E-97
 Progressive Convergence parameter:                 0.000000000    
1
 ***************************************************************************************************



                                            ***************************
                                            *  C O M P U T A T I O N  *
                                            ***************************
  

 Number of elements of the density matrix on this node (used, total):        78        78



 ===========================================
 Numerical Integration : Fuzzy Cells (Becke)
 ===========================================
  
 Becke grid quality: VERYGOOD       
  
 Lebedev angular grid order:             min:  13 max:  41
 Nr. of radial points:                   min:  64 max:  64

 Total nr. of points:         64
 Nr. of blocks:                1
 Block length:                64
 Nr. of dummy points:          0


 Test of Precision of the Numerical Integration Grid
 ===================================================

 Integral of the Total Core Density:                   0.00000000000000



 ========================
 Density Fitting (zlmFit)
 ========================
  
 ZlmFit Fit Quality: VERYGOOD       
  
 Max L-expansion:                        min:   0 max:   0
 Nr. of radial interpolation points:     min: 130 max: 130



 ======================
 RI Hartree-Fock Scheme
 ======================
  
 Fit Set Quality     : NORMAL
 Integration Quality : NORMAL
 Threshold Quality   : NORMAL
 Response Quality    : DEFAULT
 Is Range Separated  :  F
 
 RIHartreeFock Dependency: number of modified vectors:           0



 =====
 S C F  ***  ScaSCF  ***
 =====
  

 CYCLE    1
 SCF Error: norm([F,P])=      0.000000000000, max([F,P])=      0.000000000000
 orbitals (Q,E):
 ---------------
 S :1...3            ( 2.00    -1.9986)  ( 0.00    -0.4461)  ( 0.00     3.7774)
 P :1...1            ( 0.00    -0.5000)
 D :1...1            ( 0.00     0.6667)

 CYCLE    2
 SCF Error: norm([F,P])=      0.748494717698, max([F,P])=      0.697282860156
 orbitals (Q,E):
 ---------------
 S :1...2            ( 2.00    -0.8052)  ( 0.00     0.5552)
 P :1...1            ( 0.00     0.4362)
 D :1...1            ( 0.00     1.9181)

 CYCLE    3
  SDIIS (wt  0.000): -0.0510  1.0510
 A-DIIS (wt  1.000):  0.0000  1.0000
  DIIS coefficients:  0.0000  1.0000
 SCF Error: norm([F,P])=      0.061163996507, max([F,P])=      0.052853058046
 orbitals (Q,E):
 ---------------
 S :1...2            ( 2.00    -0.9053)  ( 0.00     0.5442)
 P :1...1            ( 0.00     0.4087)
 D :1...1            ( 0.00     1.8790)

 CYCLE    4
  SDIIS (wt  0.917): -0.1430  1.1430
 A-DIIS (wt  0.083):  0.0000  1.0000
  DIIS coefficients: -0.1311  1.1311
 SCF Error: norm([F,P])=      0.010207387718, max([F,P])=      0.009260043447
 orbitals (Q,E):
 ---------------
 S :1...2            ( 2.00    -0.9177)  ( 0.00     0.5408)
 P :1...1            ( 0.00     0.4038)
 D :1...1            ( 0.00     1.8721)

 CYCLE    5
  SDIIS (wt  1.000): -0.0690  1.0690
  DIIS coefficients: -0.0690  1.0690
 SCF Error: norm([F,P])=      0.000764789778, max([F,P])=      0.000761042974
 orbitals (Q,E):
 ---------------
 S :1...2            ( 2.00    -0.9180)  ( 0.00     0.5406)
 P :1...1            ( 0.00     0.4036)
 D :1...1            ( 0.00     1.8718)

 CYCLE    6
  SDIIS (wt  1.000):  0.0054  0.9946
  DIIS coefficients:  0.0054  0.9946
 SCF Error: norm([F,P])=      0.000019979797, max([F,P])=      0.000019335608
 orbitals (Q,E):
 ---------------
 S :1...2            ( 2.00    -0.9179)  ( 0.00     0.5406)
 P :1...1            ( 0.00     0.4037)
 D :1...1            ( 0.00     1.8718)

 CYCLE    7
  SDIIS (wt  1.000): -0.0841  1.0841
  DIIS coefficients: -0.0841  1.0841
 SCF Error: norm([F,P])=      0.000002229624, max([F,P])=      0.000001840394
 orbitals (Q,E):
 ---------------
 S :1...2            ( 2.00    -0.9179)  ( 0.00     0.5407)
 P :1...1            ( 0.00     0.4037)
 D :1...1            ( 0.00     1.8718)

 CYCLE    8
  SDIIS (wt  1.000): -0.0849  1.0849
  DIIS coefficients: -0.0849  1.0849
 SCF Error: norm([F,P])=      0.000000210225, max([F,P])=      0.000000209357
 orbitals (Q,E):
 ---------------
 S :1...2            ( 2.00    -0.9179)  ( 0.00     0.5407)
 P :1...1            ( 0.00     0.4037)
 D :1...1            ( 0.00     1.8718)

 CYCLE    9
  SDIIS (wt  1.000): -0.0088  1.0088
  DIIS coefficients: -0.0088  1.0088
 SCF Error: norm([F,P])=      0.000000005155, max([F,P])=      0.000000004662
 orbitals (Q,E):
 ---------------
 S :1...2            ( 2.00    -0.9179)  ( 0.00     0.5407)
 P :1...1            ( 0.00     0.4037)
 D :1...1            ( 0.00     1.8718)

 SCF CONVERGED

 CYCLE   10
1
 ***************************************************************************************************



                                                *******************
                                                *  R E S U L T S  *
                                                *******************
  
  
 Hartree-Fock exchange energy:   -1.02575289644617     
 *** Setting up for NEW gradients in Focky
 *** Using FIT density in Focky

 Orbital Energies, per Irrep and Spin:
 ======================================
                        Occup              E (au)              E (eV)       Diff (eV) with prev. cycle
                        -----      --------------------        ------       --------------------------
 S
               1        2.000     -0.91792232401724E+00       -24.978              -2.00E-08
               2        0.000      0.54065034015312E+00        14.712
               3        0.000      0.57821446467283E+01       157.340
 P
               1        0.000      0.40365279034737E+00        10.984
 D
               1        0.000      0.18717987793057E+01        50.934
  
 HOMO :        1 S                -0.91792232401724E+00
 LUMO :        1 P                 0.40365279034737E+00
  


 Orbital Energies, all Irreps
 ========================================

 Irrep        no.  (spin)   Occup              E (au)                E (eV)
 ---------------------------------------------------------------------------
 S             1             2.00       -0.91792232401724E+00       -24.9779
 P             1             0.00        0.40365279034737E+00        10.9840
 S             2             0.00        0.54065034015312E+00        14.7118
 D             1             0.00        0.18717987793057E+01        50.9342
 S             3             0.00        0.57821446467283E+01       157.3402


 All Electron Calculation, thus no Orbital Energies of the Core Orbitals are calculated



 =======================================
 M U L L I K E N   P O P U L A T I O N S
 =======================================
  
 The survey below gives for each atom:
 a) the total charge (Z minus electrons)
 b) the net spin polarization (nr of electrons spin-A minus spin-B)
 c) for each spin the atomic electron valence density (integrated) per L-value.

 Atom              Charge    Spin density          S         P         D         F
 ----              ------    ------------       ------    ------    ------    ------
 1 He              0.0000                       2.0000    0.0000    0.0000    0.0000

 Populations of individual BAS functions
 ----------------------------------------
 1 He           0.4793  1.2964  0.2243  0.0000  0.0000  0.0000  0.0000  0.0000  0.0000  0.0000
                0.0000  0.0000

 Gross Charges per Atom (Z minus electrons)
 ==========================================
             0.0000
 Net Total:  0.00000000



 =======================================================================
 Electrostatic potential at the Nuclei due to electrons and other nuclei
 =======================================================================
  
         Atom                  Potential
         ----                  ---------
     1)   He                  3.37432863
 
 
 ========================
 No memory problems found
 ========================
 
 Maximum number of active allocate calls:         370
 
 *******************************************************************************

                             A D F   E X I T
 NORMAL TERMINATION



 =================
 Timing Statistics
 =================
  
 Total Used :                     CPU=        1.02      System=        0.10     Elapsed=        3.20

 Calls  Section                     ( Mean, Percentage )
 ---------------------------------------------------------------------------------------------------
     3  ><      ................      0.00    0.56             0.00    1.00             0.00    0.35
     1  INIT    ................      0.08    7.77             0.01   12.52             2.06   64.31
     1  GEOMET  ................      0.05    5.16             0.04   43.74             0.13    4.04
     1  INPUTA  ................      0.01    0.64             0.00    0.83             0.01    0.27
     1  MAINSY  ................      0.02    1.65             0.01    5.47             0.03    0.99
     1  SYMFIT  ................      0.00    0.24             0.00    0.04             0.00    0.10
     1  CORORT  ................      0.00    0.17             0.00    0.00             0.00    0.05
     1  SYMORB  ................      0.00    0.15             0.00    0.00             0.00    0.05
     1  FITINT  ................      0.01    1.35             0.00    0.03             0.02    0.53
     1  CLSMAT  ................      0.00    0.28             0.00    0.00             0.00    0.10
     1  ORTHON  ................      0.01    1.13             0.00    0.46             0.02    0.53
     1  GENPT   ................      0.02    1.80             0.01    5.16             0.03    0.85
     1  PTBAS   ................      0.01    0.80             0.00    0.68             0.01    0.39
    10  FOCKY   ................      0.07   66.28             0.00   20.17             0.07   22.87
    10  FOCKTR  ................      0.00    1.01             0.00    2.55             0.00    0.41
    10  SDIIS   ................      0.00    4.23             0.00    4.33             0.01    1.72
     1  COREPS  ................      0.03    2.87             0.00    0.92             0.03    1.01
     1  POPAN   ................      0.01    1.08             0.00    0.16             0.01    0.39
     1  DEBYE   ................      0.00    0.23             0.00    1.00             0.01    0.16
     1  EXIT PROCEDURE .........      0.03    2.61             0.00    0.93             0.03    0.87


 Currently Open Files (EXIT00)
 ====================

 Unit    Access Format  Status   Type       Ident (file)
 -------------------------------------------------------
   3      SEQ    FORM   TRANSP  NORMAL      LOGFILE
                                          ( logfile )


 Buffered I/O statistics
 =======================
 Memory available:                     67108864
 Number of records fitting in memory:     16131
 Input :   0.1% of                        23008  *4k bytes
 Output:  16.2% of                         1075  *4k bytes
 Records from serial files evicted:           0
                    others evicted:           0
 Hash table lookups:      47075 with          0 conflicts (  0.00%)

 ***************************************************************************************************
 (LOGFILE)
 <Mar23-2019> <10:00:03>  ADF 2018  RunTime: Mar23-2019 10:00:03  Nodes: 1  Procs: 1
 <Mar23-2019> <10:00:03>  Helium (TZ2P)
 <Mar23-2019> <10:00:03>  RunType   : CREATE
 <Mar23-2019> <10:00:03>  Net Charge: 0 (Nuclei minus Electrons)
 <Mar23-2019> <10:00:03>  Symmetry  : ATOM
  Coordinates
    Atom         X           Y           Z   (Angstrom)
    1.He        0.000000    0.000000    0.000000
 <Mar23-2019> <10:00:03>  >>>> CORORT
 <Mar23-2019> <10:00:03>  >>>> FITINT
 <Mar23-2019> <10:00:03>  >>>> CLSMAT
 <Mar23-2019> <10:00:03>  >>>> ORTHON
 <Mar23-2019> <10:00:03>  >>>> GENPT
 <Mar23-2019> <10:00:03>  Block Length=  64
 <Mar23-2019> <10:00:03>  >>>> PTBAS
 <Mar23-2019> <10:00:03>  >>>> CYCLE
 <Mar23-2019> <10:00:03>  CalcFitR12Fit
 <Mar23-2019> <10:00:03>  CalcFitCoeff
 <Mar23-2019> <10:00:03>              |Error|         MaxErr       Wt(A-DIIS)
 <Mar23-2019> <10:00:03>      1      0.00000000      0.00000000
 <Mar23-2019> <10:00:03>      2      0.74849472      0.69728286
 <Mar23-2019> <10:00:03>      3      0.06116400      0.05285306    100.0
 <Mar23-2019> <10:00:04>      4      0.01020739      0.00926004      8.3
 <Mar23-2019> <10:00:04>      5      0.00076479      0.00076104      0.0
 <Mar23-2019> <10:00:04>      6      0.00001998      0.00001934      0.0
 <Mar23-2019> <10:00:04>      7      0.00000223      0.00000184      0.0
 <Mar23-2019> <10:00:04>      8      0.00000021      0.00000021      0.0
 <Mar23-2019> <10:00:04>      9      0.00000001      0.00000000      0.0
 <Mar23-2019> <10:00:04>  SCF converged
 <Mar23-2019> <10:00:04>     10      0.00000000      0.00000000      0.0
 <Mar23-2019> <10:00:04>  >>>> POPAN
 <Mar23-2019> <10:00:04>  >>>> DEBYE
 <Mar23-2019> <10:00:04>  NORMAL TERMINATION
 <Mar23-2019> <10:00:04>  END


 Parallel Execution: Process Information
 ==============================================================================
 Rank   Node Name                              NodeID   MyNodeRank  NodeMaster
    0   vladimir-kubuntu                          0          0          0
    1   vladimir-kubuntu                          0          1         -1
    2   vladimir-kubuntu                          0          2         -1
    3   vladimir-kubuntu                          0          3         -1
 ==============================================================================


May use up to 7569MB of RAM as shared memory on node 0
 
Title He

ATOMS
 He        0.0000000000 0.0000000000 0.0000000000
END

CHARGE 0 0

NUMERICALQUALITY excellent

XC
  HartreeFock
END

EPRINT
  SFO NOEIG NOOVL NOORBPOP
  SCF NOPOP
END

NOPRINT BAS FUNCTIONS

TOTALENERGY
NOTOTEN

Fragments
He t21.He
End

 *******************************************************************************
 *                                                                             *
 *  -------------------------------------                                      *
 *   Amsterdam Density Functional  (ADF)         2018                          *
 *  -------------------------------------                                      *
 *                                               r70630 2018-11-24             *
 *                                                                             *
 *                                                                             *
 *                              =================                              *
 *                              |               |                              *
 *                              |     A D F     |                              *
 *                              |               |                              *
 *                              =================                              *
 *                                                                             *
 *                                                                             *
 *   Online information and documentation:  https://www.scm.com/support/       *
 *   E-mail:  support@scm.com   info@scm.com                                   *
 *                                                                             *
 *   Scientific publications using ADF results must be properly referenced     *
 *   See the User Manuals (or the web site) for recommended citations          *
 *   The terms and conditions of the End User License Agreement apply to       *
 *   the use of ADF, https://www.scm.com/license-terms/                        *
 *                                                                             *
 **********************  x86_64_linux_intel / intelmpi  ************************
 
 Licensed to: Mr. Vladimir Konjkov / Florida Institute of Technology / Melbourne / Florida / USA
 SCM User ID: u21173
  
 ADF 2018  RunTime: Mar23-2019 10:00:05  Nodes: 1  Procs: 4

 Temporary files are created in /tmp/kid_0.210414419


Communication costs MPI_COMM_WORLD:      0.616 usec per message,   0.0061 usec per 8-byte item
Communication costs for intra-node:      0.519 usec per message,   0.0091 usec per 8-byte item

 He



 ===========================
 A T T A C H E D   F I L E S
 ===========================
  



 ===============================
 M O D E L   P A R A M E T E R S
 ===============================
  
 DENSITY FUNCTIONAL POTENTIAL (scf)
    Hybrid:                            HARTREEFOCK                             == Not Default ==

 SPIN  (restricted / unrestr.)
    Molecule:                          Restricted                               
    Fragments:                         Restricted                               

 OTHER ASPECTS
    Relativistic Corrections:          ---                                      

    Nuclear Charge Density Model:      Point Charge Nuclei                      
    Core Treatment:                    Frozen Orbital(s)                        

    Hyperfine or Zeeman Interaction:   ---                                      


 Fragment File(s)
 ----------------
 He:
         file : t21.He
         jobid: ADF 2018  RunTime: Mar23-2019 10:00:03  Nodes: 1  Procs: 1
         title: Helium (TZ2P)



                                        ************************************
                                        *  R U N   T Y P E : SINGLE POINT  *
                                        ************************************
  



 ===============
 G E O M E T R Y  ***  Single Atom  ***
 ===============
  

 ATOMS
 =====                            X Y Z                    CHARGE
                                (Angstrom)             Nucl     +Core       At.Mass
                       --------------------------    ----------------       -------
    1  He              0.0000    0.0000    0.0000      2.00      2.00        4.0026


 FRAGMENTS
 =========                                     Atoms in this Fragment     Cart. coord.s (Angstrom)
                                               -------------------------------------------------------
    1  He                                                1  He           0.0000    0.0000    0.0000



 =====================================
 S Y M M E T R Y ,   E L E C T R O N S
 =====================================
  
 Symmetry: ATOM

 Irreducible Representations, including subspecies
 -------------------------------------------------
 S
 P:x  P:y  P:z
 D:z2  D:x2-y2  D:xy  D:xz  D:yz
 F:z3  F:z  F:xyz  F:z2x  F:z2y  F:x  F:y


 Configuration of Valence Electrons
 ==================================
 ( determined in the SCF procedure )

 Total:   2

 Net Charge: 0 (Nuclei minus Electrons)

 Aufbau principle for MO occupations will be applied through SCF cycle no.     150
 Thereafter, the program will assign electrons to MOs that are spatially
 similar to the occupied MOs in a "reference" cycle ("KeepOrbitals").
 The reference cycle is always the PREVIOUS cycle: it will evolve with
 the SCF procedure.



 =======
 S F O s  ***  (Symmetrized Fragment Orbitals)  ***
 =======
  
 SFOs are linear combinations of (valence) Fragment Orbitals (FOs), such that the SFOs transform as the
 irreducible representations of the (molecular) symmetry group. Each SFO is therefore characterized by
 an irrep of the molecule and by a few (or only one) generating FOs.
 The SFOs constitute a symmetry-adapted basis for the Fock matrix. The MO eigenvector coefficients in
 this basis provide a direct interpretation of the MOs in terms of Frontier Orbital Theory.

 The SFOs are combined with auxiliary Core Functions (CFs) to ensure orthogonalization on the (frozen)
 Core Orbitals (COs). The Core-orthogonalized SFOs (CSFOs) constitute the true Fock basis.

 The FOs, and hence also the (C)SFOs are combinations of the elementary basis functions (BAS). The basis
 functions that participate in the description of the SFOs depend on the irrep. The indices of the
 involved functions are printed below for each irrep.
 (The complete list of primitive basis functions is printed in another section)

 Total nr. of (C)SFOs (summation over all irreps) :    11

 NOTE: a (C)SFO that is defined as a combination of more than one FO is usually NOT normalized.



                                       === S ===
 Nr. of SFOs :    3
 Cartesian basis functions that participate in this irrep (total number =     3) :
      1     2     3

    SFO  (index         Fragment          Generating    Expansion in Fragment Orbitals
  indx  incl.CFs)   Occup   Orb.Energy   FragmentType  Coeff.   Orbital     on Fragment
 --------------------------------------------------------------------------------------
     1       1      2.000      -0.918 au  He            1.00      1 S               1
                        (     -24.978 eV)
     2       2       --         0.541 au  He            1.00      2 S               1
                        (      14.712 eV)
     3       3       --         5.782 au  He            1.00      3 S               1
                        (     157.340 eV)



                                       === P:x ===
 Nr. of SFOs :    1
 Cartesian basis functions that participate in this irrep (total number =     1) :
      4

    SFO  (index         Fragment          Generating    Expansion in Fragment Orbitals
  indx  incl.CFs)   Occup   Orb.Energy   FragmentType  Coeff.   Orbital     on Fragment
 --------------------------------------------------------------------------------------
     1       1       --         0.404 au  He            1.00      1 P:x             1
                        (      10.984 eV)



                                       === P:y ===
 Nr. of SFOs :    1
 Cartesian basis functions that participate in this irrep (total number =     1) :
      5

    SFO  (index         Fragment          Generating    Expansion in Fragment Orbitals
  indx  incl.CFs)   Occup   Orb.Energy   FragmentType  Coeff.   Orbital     on Fragment
 --------------------------------------------------------------------------------------
     1       1       --         0.404 au  He            1.00      1 P:y             1
                        (      10.984 eV)



                                       === P:z ===
 Nr. of SFOs :    1
 Cartesian basis functions that participate in this irrep (total number =     1) :
      6

    SFO  (index         Fragment          Generating    Expansion in Fragment Orbitals
  indx  incl.CFs)   Occup   Orb.Energy   FragmentType  Coeff.   Orbital     on Fragment
 --------------------------------------------------------------------------------------
     1       1       --         0.404 au  He            1.00      1 P:z             1
                        (      10.984 eV)



                                       === D:z2 ===
 Nr. of SFOs :    1
 Cartesian basis functions that participate in this irrep (total number =     3) :
      7    10    12

    SFO  (index         Fragment          Generating    Expansion in Fragment Orbitals
  indx  incl.CFs)   Occup   Orb.Energy   FragmentType  Coeff.   Orbital     on Fragment
 --------------------------------------------------------------------------------------
     1       1       --         1.872 au  He            1.00      1 D:z2            1
                        (      50.934 eV)



                                       === D:x2-y2 ===
 Nr. of SFOs :    1
 Cartesian basis functions that participate in this irrep (total number =     2) :
      7    10

    SFO  (index         Fragment          Generating    Expansion in Fragment Orbitals
  indx  incl.CFs)   Occup   Orb.Energy   FragmentType  Coeff.   Orbital     on Fragment
 --------------------------------------------------------------------------------------
     1       1       --         1.872 au  He            1.00      1 D:x2-y2         1
                        (      50.934 eV)



                                       === D:xy ===
 Nr. of SFOs :    1
 Cartesian basis functions that participate in this irrep (total number =     1) :
      8

    SFO  (index         Fragment          Generating    Expansion in Fragment Orbitals
  indx  incl.CFs)   Occup   Orb.Energy   FragmentType  Coeff.   Orbital     on Fragment
 --------------------------------------------------------------------------------------
     1       1       --         1.872 au  He            1.00      1 D:xy            1
                        (      50.934 eV)



                                       === D:xz ===
 Nr. of SFOs :    1
 Cartesian basis functions that participate in this irrep (total number =     1) :
      9

    SFO  (index         Fragment          Generating    Expansion in Fragment Orbitals
  indx  incl.CFs)   Occup   Orb.Energy   FragmentType  Coeff.   Orbital     on Fragment
 --------------------------------------------------------------------------------------
     1       1       --         1.872 au  He            1.00      1 D:xz            1
                        (      50.934 eV)



                                       === D:yz ===
 Nr. of SFOs :    1
 Cartesian basis functions that participate in this irrep (total number =     1) :
     11

    SFO  (index         Fragment          Generating    Expansion in Fragment Orbitals
  indx  incl.CFs)   Occup   Orb.Energy   FragmentType  Coeff.   Orbital     on Fragment
 --------------------------------------------------------------------------------------
     1       1       --         1.872 au  He            1.00      1 D:yz            1
                        (      50.934 eV)

 Total number of charge fitting functions (nprimf)        51
 Total number of Cartesian basis functions (naos)         12
 Total number of Cartesian core functions  (ncos)          0

1
 ***************************************************************************************************



                                              ***********************
                                              *  T E C H N I C A L  *
                                              ***********************
  



 =============================================================
 P A R A L L E L I Z A T I O N  and  V E C T O R I Z A T I O N
 =============================================================
  
 Nr of parallel processes:                                4
 Maximum vector length in NumInt loops:                 128

 IO buffersize (Mb):                                     64.000000



 =====================
 S C F   U P D A T E S
 =====================
  
 Max. nr. of cycles:                               300
 Convergence criterion:                              0.0000010000
   secondary criterion:                              0.0010000000

 Mix parameter (when DIIS does not apply):           0.2000000000
 Mixed ADIIS+DIIS will be used
    Max number of expansion vectors:                10
    Pure ADIIS when Max([F,P]) is above              0.1000000000
    Pure DIIS when Max([F,P]) is below               0.0010000000
 Automatic ElectronSmearing (in case of problematic SCF convergence) disabled



 =================
 P R E C I S I O N  ***  (General: NumInt, NeglectFunctionTails, ...)  ***
 =================
  

 NumInt:           Target precision:                10.0000000000
 -------           Initial precision:               10.0000000000
                   Min. precision (optimization):   10.0000000000

 Neglect Functions:          Basis functions:        0.1000000000E-11
 ------------------          Fit functions:          0.1000000000E-11



 ===========================
 L I N E A R   S C A L I N G
 ===========================
  

 Cut-off radii density fit:                        0.1000000000E-13
 Overlap cut-off criterion AO matrix elements:     0.1000000000E-11
 Cut-offs for Coulomb potential and fitted density:0.1000000000E-13
 Cut-off criterion for Coulomb multipole terms:    0.1000000000E-13
 Progressive Convergence parameter:                 0.000000000    
1
 ***************************************************************************************************



                                            ***************************
                                            *  C O M P U T A T I O N  *
                                            ***************************
  

 Number of elements of the density matrix on this node (used, total):        78        78



 ===========================================
 Numerical Integration : Fuzzy Cells (Becke)
 ===========================================
  
 Becke grid quality: EXCELLENT      
  
 Lebedev angular grid order:             min:  17 max:  47
 Nr. of radial points:                   min: 100 max: 100

 Total nr. of points:        100
 Nr. of blocks:                1
 Block length:               100
 Nr. of dummy points:          0


 Test of Precision of the Numerical Integration Grid
 ===================================================

 Integral of the Total Core Density:                   0.00000000000000



 ========================
 Density Fitting (zlmFit)
 ========================
  
 ZlmFit Fit Quality: EXCELLENT      
  
 Max L-expansion:                        min:  14 max:  14
 Nr. of radial interpolation points:     min: 182 max: 182



 ======================
 RI Hartree-Fock Scheme
 ======================
  
 Fit Set Quality     : EXCELLENT
 Integration Quality : EXCELLENT
 Threshold Quality   : EXCELLENT
 Response Quality    : DEFAULT
 Is Range Separated  :  F
 
 RIHartreeFock Dependency: number of modified vectors:           0



 =====
 S C F  ***  ScaSCF  ***
 =====
  
 Initial density matrix is calculated as sum of fragments

 CYCLE    1
 Orbital Data from active fragment used
 SCF Error: norm([F,P])=      0.000004968100, max([F,P])=      0.000004699444
 orbitals (Q,E):
 ---------------
 S :1...3            ( 2.00    -0.9179)  ( 0.00     0.5407)  ( 0.00     5.7821)
 P :1...1            ( 0.00     0.4037)
 D :1...1            ( 0.00     1.8718)

 CYCLE    2
 SCF Error: norm([F,P])=      0.000000557594, max([F,P])=      0.000000452039
 orbitals (Q,E):
 ---------------
 S :1...2            ( 2.00    -0.9179)  ( 0.00     0.5407)
 P :1...1            ( 0.00     0.4037)
 D :1...1            ( 0.00     1.8718)

 SCF CONVERGED

 CYCLE    3
1
 ***************************************************************************************************



                                                *******************
                                                *  R E S U L T S  *
                                                *******************
  
  
 Hartree-Fock exchange energy:   -1.02575354737528     
 *** Setting up for NEW gradients in Focky
 *** Using FIT density in Focky

 Orbital Energies, per Irrep and Spin:
 ======================================
                        Occup              E (au)              E (eV)       Diff (eV) with prev. cycle
                        -----      --------------------        ------       --------------------------
 S
               1        2.000     -0.91792042451765E+00       -24.978              -1.18E-06
               2        0.000      0.54065121509407E+00        14.712
               3        0.000      0.57821015620446E+01       157.339
 P
               1        0.000      0.40365519809373E+00        10.984
 D
               1        0.000      0.18717992210988E+01        50.934
  
 HOMO :        1 S                -0.91792042451765E+00
 LUMO :        1 P                 0.40365519809373E+00
  


 Orbital Energies, all Irreps
 ========================================

 Irrep        no.  (spin)   Occup              E (au)                E (eV)
 ---------------------------------------------------------------------------
 S             1             2.00       -0.91792042451765E+00       -24.9779
 P             1             0.00        0.40365519809373E+00        10.9840
 S             2             0.00        0.54065121509407E+00        14.7119
 D             1             0.00        0.18717992210988E+01        50.9342
 S             3             0.00        0.57821015620446E+01       157.3390


 All Electron Calculation, thus no Orbital Energies of the Core Orbitals are calculated



 =======================
 T O T A L   E N E R G Y  ***  (contributions)  ***
 =======================
  

*** Note ***

The requirements to the integration accuracy are somewhat higher than for bond energies.
One can expect an accuracy of roughly (accint-2) decimal places, where accint is the
general integration accuracy parameter.
The Coulomb energy is the sum of the Hartree energy (electron-electron Coulomb interaction)
and the nuclear-electron attraction energy. It includes the correction for the first-order
fit error in the Hartree energy.
The potential energy is the sum of the nuclear repulsion energy, the Coulomb energy,
and the exchange-correlation energy.

Kinetic energy           =            2.861321069671

Nuclear repulsion energy =            0.000000000000
Coulomb energy           =           -4.697159880426
XC energy                =           -1.025753547375
Total potential energy   =           -5.722913427801

----------------------------------------------------
Total energy             =           -2.861592358130
Virial theorem           =            2.000094812309
----------------------------------------------------

 Gross Charges per Atom (Z minus electrons)
 ==========================================
            -0.0000
 Net Total: -0.00000000



 =================================================================
 M U L T I P O L E   D E R I V E D   C H A R G E   A N A L Y S I S
 =================================================================

 This charge analysis uses the atomic multipoles (obtained from the fitted density) up to some level X,
 and reconstructs these multipoles exactly (up to level X) by distributing charges over all atoms.
 This is achieved by using Lagrange multipliers and a weight function to keep the multipoles local.

 Dummy atoms can be included (by setting INCDUM in MDC-block to 1) to obtain a fractional charge.
 This is generally useful and necessary only for small symmetrical molecules, when there are not
 enough degrees of freedom to reconstruct the multipoles.

 Since the atomic multipoles are reconstructed up to level X,
 the molecular multipoles are represented also up to level X.
 The recommended level is to reconstruct up to quadrupole : -> MDC-q charges.

 See: M. Swart, P.Th. van Duijnen, J.G. Snijders, J.Comput.Chem., (2001), p. 79-88.

 ------------------------------------------------------------- 
 Atomic electronic multipole moments from SCF equations (a.u.)
 ------------------------------------------------------------- 

   atom        charge        dip-x     dip-y     dip-z      quad-xx   quad-xy   quad-xz   quad-yy   quad-yz   quad-zz
 --------------------------------------------------------------------------------------------------------------------
    1 He     0.000000     0.000000 -0.000000  0.000000    -0.000000 -0.000000 -0.000000 -0.000000  0.000000  0.000000

 --------------------------------------- 
 Multipole derived atomic charges (a.u.)
 --------------------------------------- 

 The MDC-m charges are just the Monopole terms in the multipole expansion, while for the MDC-d charges
 also the Dipoles are reconstructed. The usually preferred charges are the MDC-q charges.
 These reconstruct the Monopoles, Dipoles and Quadrupoles (both atomic AND molecular).

        Atom    Level:     MDC-m        MDC-d        MDC-q
 ---------------------------------------------------------
     1     He           0.000000     0.000000     0.000000

 ------------------------------------------------ 
 Average absolute deviations in atomic multipoles
 ------------------------------------------------ 

 Stated here are the average differences between the atomic multipoles
 and the reconstructed atomic multipoles (from the distributed charges).
 If these values are not zero, this means there are not enough degrees of freedom,
 to be able to reconstruct the atomic multipoles. (This usually happens only
 for small and/or highly symmetric molecules). If this is the case, one could add
 dummy atoms as extra point charges (and setting INCDUM in MDC-block to 1).

 Level:                                 MDC-d        MDC-q
 ---------------------------------------------------------
 Charge   (a.u.)                       0.0000       0.0000
 Dipole   (Debye)                      0.0000       0.0000
 Quad.    (a.u.)                       0.0000       0.0000

 --------------------------------------- 
 Represented molecular multipole moments
 --------------------------------------- 

 Given here are the Molecular multipole moments from the atomic charges, and from the Fit Density.
 Note that the atomic charges represent the latter, NOT the ones from the Exact density.

            Q (a.u.)             Dipole moment (Debye)                                          Quadrupole moment (a.u.)
                                 x         y         z              xx        xy        xz        yy        yz        zz
------------------------------------------------------------------------------------------------------------------------
MDC-m         0.0000        0.0000    0.0000    0.0000          0.0000    0.0000    0.0000    0.0000    0.0000    0.0000
MDC-d         0.0000        0.0000    0.0000    0.0000          0.0000    0.0000    0.0000    0.0000    0.0000    0.0000
MDC-q         0.0000        0.0000    0.0000    0.0000          0.0000    0.0000    0.0000    0.0000    0.0000    0.0000
 
Fit.Dens.     0.0000        0.0000   -0.0000    0.0000         -0.0000   -0.0000   -0.0000   -0.0000    0.0000    0.0000



 =============
 Dipole Moment  ***  (Debye)  ***
 =============
  
 Vector   :         0.00000000      0.00000000      0.00000000
 Magnitude:         0.00000000

 This molecular dipole moment is calculated with analytic integration



 =========================================
 Quadrupole Moment (Buckingham convention)  ***  (a.u.)  ***
 =========================================
  
      quad-xx        quad-xy        quad-xz        quad-yy        quad-yz        quad-zz
      0.00000000     0.00000000     0.00000000     0.00000000     0.00000000     0.00000000

 This molecular quadrupole moment is calculated with analytic integration



 =======================================================================
 Electrostatic potential at the Nuclei due to electrons and other nuclei
 =======================================================================
  
         Atom                  Potential
         ----                  ---------
     1)   He                  3.37433224
 
 
 ========================
 No memory problems found
 ========================
 
 Maximum number of active allocate calls:         513
 
 *******************************************************************************

                             A D F   E X I T
 NORMAL TERMINATION



 =================
 Timing Statistics
 =================
  
 Total Used :                     CPU=        4.81      System=        0.20     Elapsed=        6.15

 Calls  Section                     ( Mean, Percentage )
 ---------------------------------------------------------------------------------------------------
     3  ><      ................      0.00    0.11             0.00    0.40             0.00    0.11
     1  INIT    ................      0.61   12.67             0.03   17.30             1.33   21.70
     1  GEOMET  ................      0.06    1.25             0.05   24.02             0.13    2.06
     1  FRAGM   ................      0.03    0.52             0.00    1.53             0.03    0.54
     1  INPUTA  ................      0.00    0.08             0.00    0.07             0.00    0.07
     1  ATDEN   ................      0.00    0.04             0.00    0.50             0.00    0.05
     1  MAINSY  ................      0.05    1.01             0.01    4.00             0.07    1.07
     1  SYMFIT  ................      0.00    0.06             0.00    0.01             0.00    0.04
     1  CORORT  ................      0.00    0.03             0.00    0.42             0.00    0.04
     1  SYMORB  ................      0.00    0.06             0.00    0.05             0.01    0.09
     1  FITINT  ................      0.01    0.31             0.00    0.95             0.02    0.28
     1  CLSMAT  ................      0.00    0.09             0.00    0.00             0.00    0.07
     1  ORTHON  ................      0.02    0.35             0.00    0.06             0.02    0.30
     1  GENPT   ................      0.03    0.57             0.00    0.00             0.03    0.49
     1  PTBAS   ................      0.01    0.24             0.00    0.74             0.01    0.22
     3  FOCKY   ................      1.02   63.40             0.03   37.80             1.17   57.18
     3  FOCKTR  ................      0.00    0.25             0.00    2.00             0.01    0.26
     3  SDIIS   ................      0.01    0.45             0.00    0.02             0.01    0.38
     1  COREPS  ................      0.80   16.62             0.01    3.08             0.81   13.14
     1  POPAN   ................      0.04    0.77             0.01    3.50             0.05    0.80
     1  DEBYE   ................      0.01    0.19             0.00    1.01             0.02    0.25
     1  EXIT PROCEDURE .........      0.04    0.92             0.01    2.54             0.05    0.84


 Currently Open Files (EXIT00)
 ====================

 Unit    Access Format  Status   Type       Ident (file)
 -------------------------------------------------------
   3      SEQ    FORM   TRANSP  NORMAL      LOGFILE
                                          ( logfile )


 Buffered I/O statistics
 =======================
 Memory available:                     67108864
 Number of records fitting in memory:     16131
 Input :   0.3% of                        23960  *4k bytes
 Output:  10.6% of                         2643  *4k bytes
 Records from serial files evicted:           0
                    others evicted:           0
 Hash table lookups:      52612 with          0 conflicts (  0.00%)

 ***************************************************************************************************
 (LOGFILE)
 <Mar23-2019> <10:00:03>  ADF 2018  RunTime: Mar23-2019 10:00:03  Nodes: 1  Procs: 1
 <Mar23-2019> <10:00:03>  Helium (TZ2P)
 <Mar23-2019> <10:00:03>  RunType   : CREATE
 <Mar23-2019> <10:00:03>  Net Charge: 0 (Nuclei minus Electrons)
 <Mar23-2019> <10:00:03>  Symmetry  : ATOM
  Coordinates
    Atom         X           Y           Z   (Angstrom)
    1.He        0.000000    0.000000    0.000000
 <Mar23-2019> <10:00:03>  >>>> CORORT
 <Mar23-2019> <10:00:03>  >>>> FITINT
 <Mar23-2019> <10:00:03>  >>>> CLSMAT
 <Mar23-2019> <10:00:03>  >>>> ORTHON
 <Mar23-2019> <10:00:03>  >>>> GENPT
 <Mar23-2019> <10:00:03>  Block Length=  64
 <Mar23-2019> <10:00:03>  >>>> PTBAS
 <Mar23-2019> <10:00:03>  >>>> CYCLE
 <Mar23-2019> <10:00:03>  CalcFitR12Fit
 <Mar23-2019> <10:00:03>  CalcFitCoeff
 <Mar23-2019> <10:00:03>              |Error|         MaxErr       Wt(A-DIIS)
 <Mar23-2019> <10:00:03>      1      0.00000000      0.00000000
 <Mar23-2019> <10:00:03>      2      0.74849472      0.69728286
 <Mar23-2019> <10:00:03>      3      0.06116400      0.05285306    100.0
 <Mar23-2019> <10:00:04>      4      0.01020739      0.00926004      8.3
 <Mar23-2019> <10:00:04>      5      0.00076479      0.00076104      0.0
 <Mar23-2019> <10:00:04>      6      0.00001998      0.00001934      0.0
 <Mar23-2019> <10:00:04>      7      0.00000223      0.00000184      0.0
 <Mar23-2019> <10:00:04>      8      0.00000021      0.00000021      0.0
 <Mar23-2019> <10:00:04>      9      0.00000001      0.00000000      0.0
 <Mar23-2019> <10:00:04>  SCF converged
 <Mar23-2019> <10:00:04>     10      0.00000000      0.00000000      0.0
 <Mar23-2019> <10:00:04>  >>>> POPAN
 <Mar23-2019> <10:00:04>  >>>> DEBYE
 <Mar23-2019> <10:00:04>  NORMAL TERMINATION
 <Mar23-2019> <10:00:04>  END
 <Mar23-2019> <10:00:05>  ADF 2018  RunTime: Mar23-2019 10:00:05  Nodes: 1  Procs: 4
 <Mar23-2019> <10:00:05>  He
 <Mar23-2019> <10:00:05>  RunType   : SINGLE POINT
 <Mar23-2019> <10:00:05>  Net Charge: 0 (Nuclei minus Electrons)
 <Mar23-2019> <10:00:05>  Symmetry  : ATOM
 <Mar23-2019> <10:00:05>  >>>> FRAGM
  Coordinates
    Atom         X           Y           Z   (Angstrom)
    1.He        0.000000    0.000000    0.000000
 <Mar23-2019> <10:00:06>  >>>> CORORT
 <Mar23-2019> <10:00:06>  >>>> FITINT
 <Mar23-2019> <10:00:06>  >>>> CLSMAT
 <Mar23-2019> <10:00:06>  >>>> ORTHON
 <Mar23-2019> <10:00:06>  >>>> GENPT
 <Mar23-2019> <10:00:06>  Block Length= 100
 <Mar23-2019> <10:00:06>  >>>> PTBAS
 <Mar23-2019> <10:00:06>  >>>> CYCLE
 <Mar23-2019> <10:00:07>  CalcFitR12Fit
 <Mar23-2019> <10:00:07>  CalcFitCoeff
 <Mar23-2019> <10:00:07>  Orbital Data from active fragment used
 <Mar23-2019> <10:00:08>              |Error|         MaxErr       Wt(A-DIIS)
 <Mar23-2019> <10:00:08>      1      0.00000497      0.00000470
 <Mar23-2019> <10:00:08>      2      0.00000056      0.00000045
 <Mar23-2019> <10:00:09>  SCF converged
 <Mar23-2019> <10:00:09>      3      0.00000008      0.00000006    100.0
 <Mar23-2019> <10:00:10>   Total energy         -2.86159236 a.u.
 <Mar23-2019> <10:00:10>  >>>> POPAN
 <Mar23-2019> <10:00:10>  >>>> DEBYE
 <Mar23-2019> <10:00:10>  NORMAL TERMINATION
 <Mar23-2019> <10:00:10>  END
