 
Create O   file=QZ4P-O
XC
  HartreeFock
End
  HartreeFock

 *******************************************************************************
 *                                                                             *
 *  -------------------------------------                                      *
 *   Amsterdam Density Functional  (ADF)         2018                          *
 *  -------------------------------------                                      *
 *                                               r70630 2018-11-24             *
 *                                                                             *
 *                                                                             *
 *                              =================                              *
 *                              |               |                              *
 *                              |     A D F     |                              *
 *                              |               |                              *
 *                              =================                              *
 *                                                                             *
 *                                                                             *
 *   Online information and documentation:  https://www.scm.com/support/       *
 *   E-mail:  support@scm.com   info@scm.com                                   *
 *                                                                             *
 *   Scientific publications using ADF results must be properly referenced     *
 *   See the User Manuals (or the web site) for recommended citations          *
 *   The terms and conditions of the End User License Agreement apply to       *
 *   the use of ADF, https://www.scm.com/license-terms/                        *
 *                                                                             *
 **********************  x86_64_linux_intel / intelmpi  ************************
 
 Licensed to: Mr. Vladimir Konjkov / Florida Institute of Technology / Melbourne / Florida / USA
 SCM User ID: u21173
  
 ADF 2018  RunTime: Mar23-2019 10:00:01  Nodes: 1  Procs: 1

 Temporary files are created in /tmp/kid_0.1072984455

 Oxygen (QZ, all electron, 8S 4P 2D 2F)



 ===========================
 A T T A C H E D   F I L E S
 ===========================
  
 CREATE - Data File:    QZ4P-O
                        Oxygen (QZ, all electron, 8S 4P 2D 2F)



 ===============================
 M O D E L   P A R A M E T E R S
 ===============================
  
 DENSITY FUNCTIONAL POTENTIAL (scf)
    Hybrid:                            HARTREEFOCK                             == Not Default ==

 SPIN  (restricted / unrestr.)
    Molecule:                          Restricted                               

 OTHER ASPECTS
    Relativistic Corrections:          ---                                      

    Nuclear Charge Density Model:      Point Charge Nuclei                      
    Core Treatment:                    Frozen Orbital(s)                        

    Hyperfine or Zeeman Interaction:   ---                                      



 =====================================
 S Y M M E T R Y ,   E L E C T R O N S
 =====================================
  
 Symmetry: ATOM

 Irreducible Representations, including subspecies
 -------------------------------------------------
 S
 P:x  P:y  P:z
 D:z2  D:x2-y2  D:xy  D:xz  D:yz
 F:z3  F:z  F:xyz  F:z2x  F:z2y  F:x  F:y


 Configuration of Valence Electrons
 ==================================

          Occupation Numbers
          -------------------------------------------------
 S        2*2
 P        4
 D        0
 F        0
          -------------------------------------------------

 Total:   8

 Net Charge: 0 (Nuclei minus Electrons)

 Preset values for MO occupations will be applied through SCF cycle no. 1000000
 Thereafter, the program will assign electrons to MOs that are spatially
 similar to the occupied MOs in a "reference" cycle ("KeepOrbitals").
 The reference cycle is always the PREVIOUS cycle: it will evolve with
 the SCF procedure.



 ================================
 (Slater-type)  F U N C T I O N S  ***  (Basis and Fit)  ***
 ================================
  

 Atom Type    1  (O)
 ==============

 Valence Basis Sets:  16
 -----------------------
   1 S   14.800000
   1 S    8.750000
   1 S    6.650000
   2 S    7.100000
   2 S    3.200000
   2 S    2.050000
   2 S    1.500000
   2 S    0.750000
   2 P    5.700000
   2 P    3.050000
   2 P    1.650000
   2 P    1.000000
   3 D    2.500000
   3 D    1.500000
   4 F    4.000000
   4 F    2.000000

 Charge Fitting Sets (for the computation of the Coulomb Potential):  37
 -----------------------------------------------------------------------
   1 S   29.600000
   1 S   22.760000
   1 S   17.500000
   1 S   11.580000
   2 S   14.160000
   2 S   10.290000
   2 S    7.480000
   2 S    5.430000
   3 S    5.780000
   3 S    4.410000
   3 S    3.370000
   3 S    2.570000
   3 S    1.960000
   3 S    1.500000
   2 P   14.450000
   2 P    9.770000
   2 P    6.610000
   3 P    6.560000
   3 P    4.710000
   3 P    3.390000
   3 P    2.430000
   3 P    1.750000
   3 D   11.400000
   3 D    7.640000
   3 D    5.120000
   4 D    4.550000
   4 D    3.200000
   4 D    2.250000
   4 F   12.750000
   4 F    8.120000
   4 F    5.170000
   5 F    4.130000
   5 F    2.750000
   5 G    9.700000
   5 G    6.560000
   5 G    4.440000
   5 G    3.000000


 BAS: List of all Elementary Cartesian Basis Functions
 =====================================================

 The numbering in the list below (to the right of the function characteristics) is referred
 to in print-outs of MO eigenvectors and Mulliken populations in the BAS representation
 (as contrasted to the SFO representation).

 Notes:
 1. The functions are characterized by a polynomial prefactor (powers of x,y,z and r) and
    an exponential decay factor alpha.
 2. Since the basis sets are specific for an atom TYPE, the individual functions occur on
    all atoms of that type.
 3. The word 'Core' in the left margin signals that it is a Core Function (CF) : not a
    degree of freedom in the valence set, but only used to ensure orthogonalization of
    the other valence basis functions on the frozen Core Orbitals.


 (power of) X  Y  Z  R     Alpha  on Atom
            ==========     =====     ==========

 O                                    1
                                  ---------------------------------------------------------------------------
            0  0  0  0    14.800      1
            0  0  0  0     8.750      2
            0  0  0  0     6.650      3
            0  0  0  1     7.100      4
            0  0  0  1     3.200      5
            0  0  0  1     2.050      6
            0  0  0  1     1.500      7
            0  0  0  1     0.750      8
            1  0  0  0     5.700      9
            0  1  0  0     5.700     10
            0  0  1  0     5.700     11
            1  0  0  0     3.050     12
            0  1  0  0     3.050     13
            0  0  1  0     3.050     14
            1  0  0  0     1.650     15
            0  1  0  0     1.650     16
            0  0  1  0     1.650     17
            1  0  0  0     1.000     18
            0  1  0  0     1.000     19
            0  0  1  0     1.000     20
            2  0  0  0     2.500     21
            1  1  0  0     2.500     22
            1  0  1  0     2.500     23
            0  2  0  0     2.500     24
            0  1  1  0     2.500     25
            0  0  2  0     2.500     26
            2  0  0  0     1.500     27
            1  1  0  0     1.500     28
            1  0  1  0     1.500     29
            0  2  0  0     1.500     30
            0  1  1  0     1.500     31
            0  0  2  0     1.500     32
            3  0  0  0     4.000     33
            2  1  0  0     4.000     34
            2  0  1  0     4.000     35
            1  2  0  0     4.000     36
            1  1  1  0     4.000     37
            1  0  2  0     4.000     38
            0  3  0  0     4.000     39
            0  2  1  0     4.000     40
            0  1  2  0     4.000     41
            0  0  3  0     4.000     42
            3  0  0  0     2.000     43
            2  1  0  0     2.000     44
            2  0  1  0     2.000     45
            1  2  0  0     2.000     46
            1  1  1  0     2.000     47
            1  0  2  0     2.000     48
            0  3  0  0     2.000     49
            0  2  1  0     2.000     50
            0  1  2  0     2.000     51
            0  0  3  0     2.000     52

 Total number of charge fitting functions (nprimf)       184
 Total number of Cartesian basis functions (naos)         52
 Total number of Cartesian core functions  (ncos)          0



 BAS: List of all Elementary Cartesian Basis Functions
 =====================================================

 The numbering in the list below (to the right of the function characteristics) is referred
 to in print-outs of MO eigenvectors and Mulliken populations in the BAS representation
 (as contrasted to the SFO representation).

 Notes:
 1. The functions are characterized by a polynomial prefactor (powers of x,y,z and r) and
    an exponential decay factor alpha.
 2. Since the basis sets are specific for an atom TYPE, the individual functions occur on
    all atoms of that type.
 3. The word 'Core' in the left margin signals that it is a Core Function (CF) : not a
    degree of freedom in the valence set, but only used to ensure orthogonalization of
    the other valence basis functions on the frozen Core Orbitals.


 (power of) X  Y  Z  R     Alpha  on Atom
            ==========     =====     ==========

 O                                    1
                                  ---------------------------------------------------------------------------
            0  0  0  0    14.800      1
            0  0  0  0     8.750      2
            0  0  0  0     6.650      3
            0  0  0  1     7.100      4
            0  0  0  1     3.200      5
            0  0  0  1     2.050      6
            0  0  0  1     1.500      7
            0  0  0  1     0.750      8
            1  0  0  0     5.700      9
            0  1  0  0     5.700     10
            0  0  1  0     5.700     11
            1  0  0  0     3.050     12
            0  1  0  0     3.050     13
            0  0  1  0     3.050     14
            1  0  0  0     1.650     15
            0  1  0  0     1.650     16
            0  0  1  0     1.650     17
            1  0  0  0     1.000     18
            0  1  0  0     1.000     19
            0  0  1  0     1.000     20
            2  0  0  0     2.500     21
            1  1  0  0     2.500     22
            1  0  1  0     2.500     23
            0  2  0  0     2.500     24
            0  1  1  0     2.500     25
            0  0  2  0     2.500     26
            2  0  0  0     1.500     27
            1  1  0  0     1.500     28
            1  0  1  0     1.500     29
            0  2  0  0     1.500     30
            0  1  1  0     1.500     31
            0  0  2  0     1.500     32
            3  0  0  0     4.000     33
            2  1  0  0     4.000     34
            2  0  1  0     4.000     35
            1  2  0  0     4.000     36
            1  1  1  0     4.000     37
            1  0  2  0     4.000     38
            0  3  0  0     4.000     39
            0  2  1  0     4.000     40
            0  1  2  0     4.000     41
            0  0  3  0     4.000     42
            3  0  0  0     2.000     43
            2  1  0  0     2.000     44
            2  0  1  0     2.000     45
            1  2  0  0     2.000     46
            1  1  1  0     2.000     47
            1  0  2  0     2.000     48
            0  3  0  0     2.000     49
            0  2  1  0     2.000     50
            0  1  2  0     2.000     51
            0  0  3  0     2.000     52
1
 ***************************************************************************************************



                                              ***********************
                                              *  T E C H N I C A L  *
                                              ***********************
  



 =============================================================
 P A R A L L E L I Z A T I O N  and  V E C T O R I Z A T I O N
 =============================================================
  
 Nr of parallel processes:                                1
 Maximum vector length in NumInt loops:                 128

 IO buffersize (Mb):                                     64.000000



 =====================
 S C F   U P D A T E S
 =====================
  
 Max. nr. of cycles:                               300
 Convergence criterion:                              0.0000000100
   secondary criterion:                              0.0000000100

 Mix parameter (when DIIS does not apply):           0.2000000000
 Special mix parameter for the first cycle:          1.0000000000
 Mixed ADIIS+DIIS will be used
    Max number of expansion vectors:                10
    Pure ADIIS when Max([F,P]) is above              0.1000000000
    Pure DIIS when Max([F,P]) is below               0.0010000000
 Automatic ElectronSmearing (in case of problematic SCF convergence) disabled



 =================
 P R E C I S I O N  ***  (General: NumInt, NeglectFunctionTails, ...)  ***
 =================
  

 NumInt:           Target precision:                12.0000000000
 -------           Initial precision:               10.0000000000
                   Min. precision (optimization):   10.0000000000

 Neglect Functions:          Basis functions:        0.1000000000E-13
 ------------------          Fit functions:          0.1000000000E-13



 ===========================
 L I N E A R   S C A L I N G
 ===========================
  

 Cut-off radii density fit:                        0.1000000000E-97
 Overlap cut-off criterion AO matrix elements:     0.1000000000E-97
 Cut-offs for Coulomb potential and fitted density:0.1000000000E-97
 Cut-off criterion for Coulomb multipole terms:    0.1000000000E-97
 Progressive Convergence parameter:                 0.000000000    
1
 ***************************************************************************************************



                                            ***************************
                                            *  C O M P U T A T I O N  *
                                            ***************************
  

 Number of elements of the density matrix on this node (used, total):      1378      1378



 ===========================================
 Numerical Integration : Fuzzy Cells (Becke)
 ===========================================
  
 Becke grid quality: VERYGOOD       
  
 Lebedev angular grid order:             min:  13 max:  41
 Nr. of radial points:                   min:  81 max:  81

 Total nr. of points:         81
 Nr. of blocks:                1
 Block length:                81
 Nr. of dummy points:          0


 Test of Precision of the Numerical Integration Grid
 ===================================================

 Integral of the Total Core Density:                   0.00000000000000



 ========================
 Density Fitting (zlmFit)
 ========================
  
 ZlmFit Fit Quality: VERYGOOD       
  
 Max L-expansion:                        min:   0 max:   0
 Nr. of radial interpolation points:     min: 200 max: 200



 ======================
 RI Hartree-Fock Scheme
 ======================
  
 Fit Set Quality     : NORMAL
 Integration Quality : NORMAL
 Threshold Quality   : NORMAL
 Response Quality    : DEFAULT
 Is Range Separated  :  F
 
 RIHartreeFock Dependency: number of modified vectors:           0



 =====
 S C F  ***  ScaSCF  ***
 =====
  

 CYCLE    1
 SCF Error: norm([F,P])=      0.000000000000, max([F,P])=      0.000000000000
 orbitals (Q,E):
 ---------------
 S :1...8            ( 2.00   -32.0000)  ( 2.00    -7.9983)  ( 0.00    -3.5553)  ( 0.00    -1.9891)
                     ( 0.00    -1.2509)  ( 0.00     4.1281)  ( 0.00    41.4365)  ( 0.00   315.2313)
 P :1...4            ( 4.00    -7.9737)  ( 0.00    -3.5107)  ( 0.00    -1.8853)  ( 0.00     3.2175)
 D :1...2            ( 0.00    -3.5495)  ( 0.00    -1.9916)
 F :1...2            ( 0.00    -2.0000)  ( 0.00     1.0602)

 CYCLE    2
  SDIIS (wt  0.000):  1.0000  0.0000
 A-DIIS (wt  1.000):  0.0000  1.0000
  DIIS coefficients:  0.0000  1.0000
 SCF Error: norm([F,P])=      9.911328776769, max([F,P])=      4.131106195186
 orbitals (Q,E):
 ---------------
 S :1...3            ( 2.00   -16.5635)  ( 2.00    -0.1721)  ( 0.00     0.1244)
 P :1...2            ( 4.00     0.2343)  ( 0.00     0.8114)
 D :1...1            ( 0.00     0.8089)
 F :1...1            ( 0.00     1.7040)

 CYCLE    3
  SDIIS (wt  0.000):  0.1448  0.8552
 A-DIIS (wt  1.000):  0.2554  0.7446
  DIIS coefficients:  0.2554  0.7446
 SCF Error: norm([F,P])=      2.974846770227, max([F,P])=      2.329900732670
 orbitals (Q,E):
 ---------------
 S :1...3            ( 2.00   -22.1253)  ( 2.00    -2.0963)  ( 0.00    -0.0849)
 P :1...2            ( 4.00    -1.1157)  ( 0.00     0.0192)
 D :1...1            ( 0.00     0.3674)
 F :1...1            ( 0.00     1.2136)

 CYCLE    4
  SDIIS (wt  0.000): -0.0393  0.2197  0.8195
 A-DIIS (wt  1.000):  0.0000  0.0000  1.0000
  DIIS coefficients:  0.0000  0.0000  1.0000
 SCF Error: norm([F,P])=      1.332298582135, max([F,P])=      0.571225482972
 orbitals (Q,E):
 ---------------
 S :1...3            ( 2.00   -19.8645)  ( 2.00    -0.9804)  ( 0.00     0.0998)
 P :1...2            ( 4.00    -0.1324)  ( 0.00     0.3881)
 D :1...1            ( 0.00     0.7572)
 F :1...1            ( 0.00     1.6486)

 CYCLE    5
  SDIIS (wt  0.000): -0.0002 -0.0685  0.3124  0.7563
 A-DIIS (wt  1.000):  0.0000  0.0000  0.0957  0.9043
  DIIS coefficients:  0.0000  0.0000  0.0957  0.9043
 SCF Error: norm([F,P])=      0.732525386674, max([F,P])=      0.344793911999
 orbitals (Q,E):
 ---------------
 S :1...3            ( 2.00   -21.2510)  ( 2.00    -1.4899)  ( 0.00     0.0762)
 P :1...2            ( 4.00    -0.5824)  ( 0.00     0.2950)
 D :1...1            ( 0.00     0.6578)
 F :1...1            ( 0.00     1.5413)

 CYCLE    6
  SDIIS (wt  0.000): -0.0026 -0.0042 -0.0931  0.2182  0.8816
 A-DIIS (wt  1.000):  0.0000  0.0000  0.0000  0.0000  1.0000
  DIIS coefficients:  0.0000  0.0000  0.0000  0.0000  1.0000
 SCF Error: norm([F,P])=      0.324772089358, max([F,P])=      0.140825944853
 orbitals (Q,E):
 ---------------
 S :1...3            ( 2.00   -20.5891)  ( 2.00    -1.2334)  ( 0.00     0.0920)
 P :1...2            ( 4.00    -0.3552)  ( 0.00     0.3465)
 D :1...1            ( 0.00     0.7165)
 F :1...1            ( 0.00     1.6050)

 CYCLE    7
  SDIIS (wt  0.277):  0.0001  0.0012 -0.0163 -0.0725  0.3023  0.7852
 A-DIIS (wt  0.723):  0.0000  0.0000  0.0000  0.0000  0.0339  0.9661
  DIIS coefficients:  0.0000  0.0003 -0.0045 -0.0201  0.1083  0.9160
 SCF Error: norm([F,P])=      0.162189531356, max([F,P])=      0.072573033331
 orbitals (Q,E):
 ---------------
 S :1...3            ( 2.00   -20.8937)  ( 2.00    -1.3421)  ( 0.00     0.0872)
 P :1...2            ( 4.00    -0.4531)  ( 0.00     0.3276)
 D :1...1            ( 0.00     0.6956)
 F :1...1            ( 0.00     1.5827)

 CYCLE    8
  SDIIS (wt  0.754):  0.0000  0.0002  0.0032  0.0028 -0.1404  0.0959  1.0383
 A-DIIS (wt  0.246):  0.0000  0.0000  0.0000  0.0000  0.0000  0.0000  1.0000
  DIIS coefficients:  0.0000  0.0001  0.0024  0.0021 -0.1058  0.0723  1.0289
 SCF Error: norm([F,P])=      0.056986681292, max([F,P])=      0.025392013072
 orbitals (Q,E):
 ---------------
 S :1...3            ( 2.00   -20.8051)  ( 2.00    -1.3090)  ( 0.00     0.0889)
 P :1...2            ( 4.00    -0.4236)  ( 0.00     0.3335)
 D :1...1            ( 0.00     0.7025)
 F :1...1            ( 0.00     1.5901)

 CYCLE    9
  SDIIS (wt  0.979):  0.0000  0.0000 -0.0002  0.0022  0.0044 -0.0496 -0.0074  1.0506
 A-DIIS (wt  0.021):  0.0000  0.0000  0.0000  0.0000  0.0000  0.0000  0.0000  1.0000
  DIIS coefficients:  0.0000  0.0000 -0.0002  0.0021  0.0043 -0.0486 -0.0072  1.0495
 SCF Error: norm([F,P])=      0.006894648626, max([F,P])=      0.003054693137
 orbitals (Q,E):
 ---------------
 S :1...3            ( 2.00   -20.8150)  ( 2.00    -1.3125)  ( 0.00     0.0887)
 P :1...2            ( 4.00    -0.4268)  ( 0.00     0.3330)
 D :1...1            ( 0.00     0.7019)
 F :1...1            ( 0.00     1.5894)

 CYCLE   10
  SDIIS (wt  1.000): -0.0000  0.0000  0.0000 -0.0003 -0.0012  0.0079  0.0041 -0.1606  1.1501
  DIIS coefficients: -0.0000  0.0000  0.0000 -0.0003 -0.0012  0.0079  0.0041 -0.1606  1.1501
 SCF Error: norm([F,P])=      0.000100727291, max([F,P])=      0.000047917361
 orbitals (Q,E):
 ---------------
 S :1...3            ( 2.00   -20.8149)  ( 2.00    -1.3125)  ( 0.00     0.0888)
 P :1...2            ( 4.00    -0.4268)  ( 0.00     0.3330)
 D :1...1            ( 0.00     0.7019)
 F :1...1            ( 0.00     1.5894)

 CYCLE   11
  SDIIS (wt  1.000):  0.0000  0.0000  0.0000 -0.0000 -0.0001  0.0002  0.0010 -0.0880  1.0870
  DIIS coefficients:  0.0000  0.0000  0.0000 -0.0000 -0.0001  0.0002  0.0010 -0.0880  1.0870
 SCF Error: norm([F,P])=      0.000002737497, max([F,P])=      0.000001459277
 orbitals (Q,E):
 ---------------
 S :1...3            ( 2.00   -20.8149)  ( 2.00    -1.3125)  ( 0.00     0.0888)
 P :1...2            ( 4.00    -0.4268)  ( 0.00     0.3330)
 D :1...1            ( 0.00     0.7019)
 F :1...1            ( 0.00     1.5894)

 CYCLE   12
  SDIIS (wt  1.000): -0.0000  0.0000  0.0000  0.0000  0.0014 -0.0492  1.0478
  DIIS coefficients: -0.0000  0.0000  0.0000  0.0000  0.0014 -0.0492  1.0478
 SCF Error: norm([F,P])=      0.000000082878, max([F,P])=      0.000000044534
 orbitals (Q,E):
 ---------------
 S :1...3            ( 2.00   -20.8149)  ( 2.00    -1.3125)  ( 0.00     0.0888)
 P :1...2            ( 4.00    -0.4268)  ( 0.00     0.3330)
 D :1...1            ( 0.00     0.7019)
 F :1...1            ( 0.00     1.5894)

 CYCLE   13
  SDIIS (wt  1.000): -0.0000 -0.0000  0.0019 -0.0558  1.0539
  DIIS coefficients: -0.0000 -0.0000  0.0019 -0.0558  1.0539
 SCF Error: norm([F,P])=      0.000000000437, max([F,P])=      0.000000000213
 orbitals (Q,E):
 ---------------
 S :1...3            ( 2.00   -20.8149)  ( 2.00    -1.3125)  ( 0.00     0.0888)
 P :1...2            ( 4.00    -0.4268)  ( 0.00     0.3330)
 D :1...1            ( 0.00     0.7019)
 F :1...1            ( 0.00     1.5894)

 SCF CONVERGED

 CYCLE   14
1
 ***************************************************************************************************



                                                *******************
                                                *  R E S U L T S  *
                                                *******************
  
  
 Hartree-Fock exchange energy:   -7.57079885599045     
 *** Setting up for NEW gradients in Focky
 *** Using FIT density in Focky

 Orbital Energies, per Irrep and Spin:
 ======================================
                        Occup              E (au)              E (eV)       Diff (eV) with prev. cycle
                        -----      --------------------        ------       --------------------------
 S
               1        2.000     -0.20814880833710E+02      -566.402              -2.00E-10
               2        2.000     -0.13124676844490E+01       -35.714              -8.80E-11
               3        0.000      0.88750593703814E-01         2.415
               4        0.000      0.63013377250334E+00        17.147
               5        0.000      0.28843591990714E+01        78.487
               6        0.000      0.12655161294138E+02       344.364
               7        0.000      0.54277382334345E+02      1476.963
               8        0.000      0.33266225897052E+03      9052.201
 P
               1        4.000     -0.42678486567209E+00       -11.613              -9.45E-11
               2        0.000      0.33297026489998E+00         9.061
               3        0.000      0.20403706340507E+01        55.521
               4        0.000      0.13099230744491E+02       356.448
 D
               1        0.000      0.70186650862789E+00        19.099
               2        0.000      0.28017048554243E+01        76.238
 F
               1        0.000      0.15894017589556E+01        43.250
               2        0.000      0.75958688166280E+01       206.694


 Partially Occupied:
               1 P                -0.42678486567209E+00
  
 HOMO :        2 S                -0.13124676844490E+01
 LUMO :        3 S                 0.88750593703814E-01
  


 Orbital Energies, all Irreps
 ========================================

 Irrep        no.  (spin)   Occup              E (au)                E (eV)
 ---------------------------------------------------------------------------
 S             1             2.00       -0.20814880833710E+02      -566.4017
 S             2             2.00       -0.13124676844490E+01       -35.7141
 P             1             4.00       -0.42678486567209E+00       -11.6134
 S             3             0.00        0.88750593703814E-01         2.4150
 P             2             0.00        0.33297026489998E+00         9.0606
 S             4             0.00        0.63013377250334E+00        17.1468
 D             1             0.00        0.70186650862789E+00        19.0988
 F             1             0.00        0.15894017589556E+01        43.2498
 P             3             0.00        0.20403706340507E+01        55.5213
 D             2             0.00        0.28017048554243E+01        76.2383
 S             5             0.00        0.28843591990714E+01        78.4874
 F             2             0.00        0.75958688166280E+01       206.6941
 S             6             0.00        0.12655161294138E+02       344.3645
 P             4             0.00        0.13099230744491E+02       356.4482
 S             7             0.00        0.54277382334345E+02      1476.9627
 S             8             0.00        0.33266225897052E+03      9052.2006


 All Electron Calculation, thus no Orbital Energies of the Core Orbitals are calculated



 =======================================
 M U L L I K E N   P O P U L A T I O N S
 =======================================
  
 The survey below gives for each atom:
 a) the total charge (Z minus electrons)
 b) the net spin polarization (nr of electrons spin-A minus spin-B)
 c) for each spin the atomic electron valence density (integrated) per L-value.

 Atom              Charge    Spin density          S         P         D         F
 ----              ------    ------------       ------    ------    ------    ------
 1 O               0.0000                       4.0000    4.0000    0.0000    0.0000

 Populations of individual BAS functions
 ----------------------------------------
 1 O            0.0347  0.4819  1.6785 -0.2521  0.7431  1.1511  0.1623  0.0005  0.0377  0.0377
                0.0377  0.4366  0.4366  0.4366  0.6715  0.6715  0.6715  0.1875  0.1875  0.1875
                0.0000  0.0000  0.0000  0.0000  0.0000  0.0000  0.0000  0.0000  0.0000  0.0000
                0.0000  0.0000  0.0000  0.0000  0.0000  0.0000  0.0000  0.0000  0.0000  0.0000
                0.0000  0.0000  0.0000  0.0000  0.0000  0.0000  0.0000  0.0000  0.0000  0.0000
                0.0000  0.0000

 Gross Charges per Atom (Z minus electrons)
 ==========================================
             0.0000
 Net Total:  0.00000000



 =======================================================================
 Electrostatic potential at the Nuclei due to electrons and other nuclei
 =======================================================================
  
         Atom                  Potential
         ----                  ---------
     1)   O                  22.11618799
 
 
 ========================
 No memory problems found
 ========================
 
 Maximum number of active allocate calls:         454
 
 *******************************************************************************

                             A D F   E X I T
 NORMAL TERMINATION



 =================
 Timing Statistics
 =================
  
 Total Used :                     CPU=        0.91      System=        0.07     Elapsed=        2.32

 Calls  Section                     ( Mean, Percentage )
 ---------------------------------------------------------------------------------------------------
     3  ><      ................      0.00    0.36             0.00    0.56             0.00    0.39
     1  INIT    ................      0.03    3.64             0.00    7.20             1.24   53.28
     1  GEOMET  ................      0.03    2.97             0.03   42.58             0.10    4.13
     1  INPUTA  ................      0.00    0.41             0.00    0.38             0.01    0.24
     1  MAINSY  ................      0.01    1.16             0.00    1.93             0.02    1.00
     1  SYMFIT  ................      0.00    0.08             0.00    0.63             0.00    0.09
     1  CORORT  ................      0.00    0.08             0.00    0.00             0.00    0.03
     1  SYMORB  ................      0.00    0.09             0.00    0.01             0.00    0.04
     1  FITINT  ................      0.01    1.50             0.00    2.10             0.02    0.82
     1  CLSMAT  ................      0.00    0.11             0.00    0.45             0.00    0.08
     1  ORTHON  ................      0.00    0.37             0.00    4.54             0.01    0.53
     1  GENPT   ................      0.02    1.86             0.00    1.37             0.02    0.96
     1  PTBAS   ................      0.00    0.13             0.00    4.81             0.01    0.39
    14  FOCKY   ................      0.05   76.29             0.00   21.55             0.05   32.67
    14  FOCKTR  ................      0.00    1.32             0.00    2.71             0.00    0.61
    14  SDIIS   ................      0.00    3.82             0.00    7.74             0.00    2.16
     1  COREPS  ................      0.03    2.85             0.00    1.42             0.03    1.26
     1  POPAN   ................      0.01    1.02             0.00    0.01             0.01    0.47
     1  DEBYE   ................      0.00    0.19             0.00    0.00             0.00    0.14
     1  EXIT PROCEDURE .........      0.02    1.76             0.00    0.00             0.02    0.71


 Currently Open Files (EXIT00)
 ====================

 Unit    Access Format  Status   Type       Ident (file)
 -------------------------------------------------------
   3      SEQ    FORM   TRANSP  NORMAL      LOGFILE
                                          ( logfile )


 Buffered I/O statistics
 =======================
 Memory available:                     67108864
 Number of records fitting in memory:     16131
 Input :   0.1% of                        46124  *4k bytes
 Output:   8.5% of                         2426  *4k bytes
 Records from serial files evicted:           0
                    others evicted:           0
 Hash table lookups:      93156 with          0 conflicts (  0.00%)

 ***************************************************************************************************
 (LOGFILE)
 <Mar23-2019> <10:00:01>  ADF 2018  RunTime: Mar23-2019 10:00:01  Nodes: 1  Procs: 1
 <Mar23-2019> <10:00:01>  Oxygen (QZ, all electron, 8S 4P 2D 2F)
 <Mar23-2019> <10:00:01>  RunType   : CREATE
 <Mar23-2019> <10:00:01>  Net Charge: 0 (Nuclei minus Electrons)
 <Mar23-2019> <10:00:01>  Symmetry  : ATOM
  Coordinates
    Atom         X           Y           Z   (Angstrom)
    1.O         0.000000    0.000000    0.000000
 <Mar23-2019> <10:00:01>  >>>> CORORT
 <Mar23-2019> <10:00:02>  >>>> FITINT
 <Mar23-2019> <10:00:02>  >>>> CLSMAT
 <Mar23-2019> <10:00:02>  >>>> ORTHON
 <Mar23-2019> <10:00:02>  >>>> GENPT
 <Mar23-2019> <10:00:02>  Block Length=  81
 <Mar23-2019> <10:00:02>  >>>> PTBAS
 <Mar23-2019> <10:00:02>  >>>> CYCLE
 <Mar23-2019> <10:00:02>  CalcFitR12Fit
 <Mar23-2019> <10:00:02>  CalcFitCoeff
 <Mar23-2019> <10:00:02>              |Error|         MaxErr       Wt(A-DIIS)
 <Mar23-2019> <10:00:02>      1      0.00000000      0.00000000
 <Mar23-2019> <10:00:02>      2      9.91132878      4.13110620    100.0
 <Mar23-2019> <10:00:02>      3      2.97484677      2.32990073    100.0
 <Mar23-2019> <10:00:02>      4      1.33229858      0.57122548    100.0
 <Mar23-2019> <10:00:02>      5      0.73252539      0.34479391    100.0
 <Mar23-2019> <10:00:02>      6      0.32477209      0.14082594    100.0
 <Mar23-2019> <10:00:02>      7      0.16218953      0.07257303     72.3
 <Mar23-2019> <10:00:02>      8      0.05698668      0.02539201     24.6
 <Mar23-2019> <10:00:02>      9      0.00689465      0.00305469      2.1
 <Mar23-2019> <10:00:02>     10      0.00010073      0.00004792      0.0
 <Mar23-2019> <10:00:02>     11      0.00000274      0.00000146      0.0
 <Mar23-2019> <10:00:02>     12      0.00000008      0.00000004      0.0
 <Mar23-2019> <10:00:02>     13      0.00000000      0.00000000      0.0
 <Mar23-2019> <10:00:02>  SCF converged
 <Mar23-2019> <10:00:02>     14      0.00000000      0.00000000      0.0
 <Mar23-2019> <10:00:02>  >>>> POPAN
 <Mar23-2019> <10:00:02>  >>>> DEBYE
 <Mar23-2019> <10:00:02>  NORMAL TERMINATION
 <Mar23-2019> <10:00:02>  END


 Parallel Execution: Process Information
 ==============================================================================
 Rank   Node Name                              NodeID   MyNodeRank  NodeMaster
    0   vladimir-kubuntu                          0          0          0
    1   vladimir-kubuntu                          0          1         -1
    2   vladimir-kubuntu                          0          2         -1
    3   vladimir-kubuntu                          0          3         -1
 ==============================================================================


May use up to 7569MB of RAM as shared memory on node 0
 
Title O3

ATOMS
 O         0.000000000000      0.000000000000      0.000000000000
 O         0.000000000000      0.000000000000      1.268813890000
 O         1.129329809229      0.000000000000     -0.578362230305
END

CHARGE 0 0

XC
  HartreeFock
END

NUMERICALQUALITY excellent

EPRINT
  SFO NOEIG NOOVL NOORBPOP
  SCF NOPOP
END

NOPRINT BAS FUNCTIONS

TOTALENERGY
NOTOTEN

Fragments
O t21.O
End

 *******************************************************************************
 *                                                                             *
 *  -------------------------------------                                      *
 *   Amsterdam Density Functional  (ADF)         2018                          *
 *  -------------------------------------                                      *
 *                                               r70630 2018-11-24             *
 *                                                                             *
 *                                                                             *
 *                              =================                              *
 *                              |               |                              *
 *                              |     A D F     |                              *
 *                              |               |                              *
 *                              =================                              *
 *                                                                             *
 *                                                                             *
 *   Online information and documentation:  https://www.scm.com/support/       *
 *   E-mail:  support@scm.com   info@scm.com                                   *
 *                                                                             *
 *   Scientific publications using ADF results must be properly referenced     *
 *   See the User Manuals (or the web site) for recommended citations          *
 *   The terms and conditions of the End User License Agreement apply to       *
 *   the use of ADF, https://www.scm.com/license-terms/                        *
 *                                                                             *
 **********************  x86_64_linux_intel / intelmpi  ************************
 
 Licensed to: Mr. Vladimir Konjkov / Florida Institute of Technology / Melbourne / Florida / USA
 SCM User ID: u21173
  
 ADF 2018  RunTime: Mar23-2019 10:00:03  Nodes: 1  Procs: 4

 Temporary files are created in /tmp/kid_0.1117151971


Communication costs MPI_COMM_WORLD:      0.359 usec per message,   0.0041 usec per 8-byte item
Communication costs for intra-node:      0.277 usec per message,   0.0040 usec per 8-byte item

 O3



 ===========================
 A T T A C H E D   F I L E S
 ===========================
  



 ===============================
 M O D E L   P A R A M E T E R S
 ===============================
  
 DENSITY FUNCTIONAL POTENTIAL (scf)
    Hybrid:                            HARTREEFOCK                             == Not Default ==

 SPIN  (restricted / unrestr.)
    Molecule:                          Restricted                               
    Fragments:                         Restricted                               

 OTHER ASPECTS
    Relativistic Corrections:          ---                                      

    Nuclear Charge Density Model:      Point Charge Nuclei                      
    Core Treatment:                    Frozen Orbital(s)                        

    Hyperfine or Zeeman Interaction:   ---                                      


 Fragment File(s)
 ----------------
 O:
         file : t21.O
         jobid: ADF 2018  RunTime: Mar23-2019 10:00:01  Nodes: 1  Procs: 1
         title: Oxygen (QZ, all electron, 8S 4P 2D 2F)



                                        ************************************
                                        *  R U N   T Y P E : SINGLE POINT  *
                                        ************************************
  



 ===============
 G E O M E T R Y  ***  Planar Molecule  ***
 ===============
  

 ATOMS
 =====                            X Y Z                    CHARGE
                                (Angstrom)             Nucl     +Core       At.Mass
                       --------------------------    ----------------       -------
    1  O               0.0000    0.0000    0.0000      8.00      8.00       15.9949
    2  O              -1.0825    0.0000    0.6618      8.00      8.00       15.9949
    3  O               1.0825    0.0000    0.6618      8.00      8.00       15.9949


 FRAGMENTS
 =========                                     Atoms in this Fragment     Cart. coord.s (Angstrom)
                                               -------------------------------------------------------
    1  O                                                 1  O            0.0000    0.0000    0.0000
    2  O                                                 2  O           -1.0825    0.0000    0.6618
    3  O                                                 3  O            1.0825    0.0000    0.6618


 Interatomic Distance Matrix (Angstrom)
 --------------------------------------

   1)     0.000
   2)     1.269   0.000
   3)     1.269   2.165   0.000

 Min. Distance =    1.2688
 Max. Distance =    2.1651



 =====================================
 S Y M M E T R Y ,   E L E C T R O N S
 =====================================
  
 Symmetry: C(2V)

 Irreducible Representations, including subspecies
 -------------------------------------------------
 A1
 A2
 B1
 B2


 Configuration of Valence Electrons
 ==================================
 ( determined in the SCF procedure )

 Total:   24

 Net Charge: 0 (Nuclei minus Electrons)

 Aufbau principle for MO occupations will be applied through SCF cycle no.     150
 Thereafter, the program will assign electrons to MOs that are spatially
 similar to the occupied MOs in a "reference" cycle ("KeepOrbitals").
 The reference cycle is always the PREVIOUS cycle: it will evolve with
 the SCF procedure.



 =======
 S F O s  ***  (Symmetrized Fragment Orbitals)  ***
 =======
  
 SFOs are linear combinations of (valence) Fragment Orbitals (FOs), such that the SFOs transform as the
 irreducible representations of the (molecular) symmetry group. Each SFO is therefore characterized by
 an irrep of the molecule and by a few (or only one) generating FOs.
 The SFOs constitute a symmetry-adapted basis for the Fock matrix. The MO eigenvector coefficients in
 this basis provide a direct interpretation of the MOs in terms of Frontier Orbital Theory.

 The SFOs are combined with auxiliary Core Functions (CFs) to ensure orthogonalization on the (frozen)
 Core Orbitals (COs). The Core-orthogonalized SFOs (CSFOs) constitute the true Fock basis.

 The FOs, and hence also the (C)SFOs are combinations of the elementary basis functions (BAS). The basis
 functions that participate in the description of the SFOs depend on the irrep. The indices of the
 involved functions are printed below for each irrep.
 (The complete list of primitive basis functions is printed in another section)

 Total nr. of (C)SFOs (summation over all irreps) :   132

 NOTE: a (C)SFO that is defined as a combination of more than one FO is usually NOT normalized.



                                       === A1 ===
 Nr. of SFOs :   50
 Cartesian basis functions that participate in this irrep (total number =    96) :
      1     2     3     4     5     6     7     8    11    14
     17    20    26    32    21    24    27    30    42    52
     35    40    45    50    53   105    54   106    55   107
     56   108    57   109    58   110    59   111    60   112
     63   115    66   118    69   121    72   124    61   113
     64   116    67   119    70   122    78   130    84   136
     75   127    81   133    73    76   125   128    79    82
    131   134    94   146   104   156    90   142   100   152
     87    92   139   144    97   102   149   154    85    88
    137   140    95    98   147   150

    SFO  (index         Fragment          Generating    Expansion in Fragment Orbitals
  indx  incl.CFs)   Occup   Orb.Energy   FragmentType  Coeff.   Orbital     on Fragment
 --------------------------------------------------------------------------------------
     1       1      2.000     -20.815 au  O             1.00      1 S               1
                        (    -566.402 eV)
     2       2      2.000      -1.312 au  O             1.00      2 S               1
                        (     -35.714 eV)
     3       3       --         0.089 au  O             1.00      3 S               1
                        (       2.415 eV)
     4       4       --         0.630 au  O             1.00      4 S               1
                        (      17.147 eV)
     5       5       --         2.884 au  O             1.00      5 S               1
                        (      78.487 eV)
     6       6       --        12.655 au  O             1.00      6 S               1
                        (     344.364 eV)
     7       7       --        54.277 au  O             1.00      7 S               1
                        (    1476.963 eV)
     8       8       --       332.662 au  O             1.00      8 S               1
                        (    9052.201 eV)
     9       9      1.333      -0.427 au  O             1.00      1 P:z             1
                        (     -11.613 eV)
    10      10       --         0.333 au  O             1.00      2 P:z             1
                        (       9.061 eV)
    11      11       --         2.040 au  O             1.00      3 P:z             1
                        (      55.521 eV)
    12      12       --        13.099 au  O             1.00      4 P:z             1
                        (     356.448 eV)
    13      13       --         0.702 au  O             1.00      1 D:z2            1
                        (      19.099 eV)
    14      14       --         2.802 au  O             1.00      2 D:z2            1
                        (      76.238 eV)
    15      15       --         0.702 au  O             1.00      1 D:x2-y2         1
                        (      19.099 eV)
    16      16       --         2.802 au  O             1.00      2 D:x2-y2         1
                        (      76.238 eV)
    17      17       --         1.589 au  O             1.00      1 F:z3            1
                        (      43.250 eV)
    18      18       --         7.596 au  O             1.00      2 F:z3            1
                        (     206.694 eV)
    19      19       --         1.589 au  O             1.00      1 F:z             1
                        (      43.250 eV)
    20      20       --         7.596 au  O             1.00      2 F:z             1
                        (     206.694 eV)
    21      21      2.000     -20.815 au  O             0.71      1 S               2
                        (    -566.402 eV)               0.71      1 S               3
    22      22      2.000      -1.312 au  O             0.71      2 S               2
                        (     -35.714 eV)               0.71      2 S               3
    23      23       --         0.089 au  O             0.71      3 S               2
                        (       2.415 eV)               0.71      3 S               3
    24      24       --         0.630 au  O             0.71      4 S               2
                        (      17.147 eV)               0.71      4 S               3
    25      25       --         2.884 au  O             0.71      5 S               2
                        (      78.487 eV)               0.71      5 S               3
    26      26       --        12.655 au  O             0.71      6 S               2
                        (     344.364 eV)               0.71      6 S               3
    27      27       --        54.277 au  O             0.71      7 S               2
                        (    1476.963 eV)               0.71      7 S               3
    28      28       --       332.662 au  O             0.71      8 S               2
                        (    9052.201 eV)               0.71      8 S               3
    29      29      1.333      -0.427 au  O             0.71      1 P:x             2
                        (     -11.613 eV)              -0.71      1 P:x             3
    30      30       --         0.333 au  O             0.71      2 P:x             2
                        (       9.061 eV)              -0.71      2 P:x             3
    31      31       --         2.040 au  O             0.71      3 P:x             2
                        (      55.521 eV)              -0.71      3 P:x             3
    32      32       --        13.099 au  O             0.71      4 P:x             2
                        (     356.448 eV)              -0.71      4 P:x             3
    33      33      1.333      -0.427 au  O             0.71      1 P:z             2
                        (     -11.613 eV)               0.71      1 P:z             3
    34      34       --         0.333 au  O             0.71      2 P:z             2
                        (       9.061 eV)               0.71      2 P:z             3
    35      35       --         2.040 au  O             0.71      3 P:z             2
                        (      55.521 eV)               0.71      3 P:z             3
    36      36       --        13.099 au  O             0.71      4 P:z             2
                        (     356.448 eV)               0.71      4 P:z             3
    37      37       --         0.702 au  O             0.71      1 D:z2            2
                        (      19.099 eV)               0.71      1 D:z2            3
    38      38       --         2.802 au  O             0.71      2 D:z2            2
                        (      76.238 eV)               0.71      2 D:z2            3
    39      39       --         0.702 au  O             0.71      1 D:x2-y2         2
                        (      19.099 eV)               0.71      1 D:x2-y2         3
    40      40       --         2.802 au  O             0.71      2 D:x2-y2         2
                        (      76.238 eV)               0.71      2 D:x2-y2         3
    41      41       --         0.702 au  O             0.71      1 D:xz            2
                        (      19.099 eV)              -0.71      1 D:xz            3
    42      42       --         2.802 au  O             0.71      2 D:xz            2
                        (      76.238 eV)              -0.71      2 D:xz            3
    43      43       --         1.589 au  O             0.71      1 F:z3            2
                        (      43.250 eV)               0.71      1 F:z3            3
    44      44       --         7.596 au  O             0.71      2 F:z3            2
                        (     206.694 eV)               0.71      2 F:z3            3
    45      45       --         1.589 au  O             0.71      1 F:z             2
                        (      43.250 eV)               0.71      1 F:z             3
    46      46       --         7.596 au  O             0.71      2 F:z             2
                        (     206.694 eV)               0.71      2 F:z             3
    47      47       --         1.589 au  O             0.71      1 F:z2x           2
                        (      43.250 eV)              -0.71      1 F:z2x           3
    48      48       --         7.596 au  O             0.71      2 F:z2x           2
                        (     206.694 eV)              -0.71      2 F:z2x           3
    49      49       --         1.589 au  O             0.71      1 F:x             2
                        (      43.250 eV)              -0.71      1 F:x             3
    50      50       --         7.596 au  O             0.71      2 F:x             2
                        (     206.694 eV)              -0.71      2 F:x             3



                                       === A2 ===
 Nr. of SFOs :   18
 Cartesian basis functions that participate in this irrep (total number =    36) :
     22    28    37    47    62   114    65   117    68   120
     71   123    77   129    83   135    74   126    80   132
     93   145   103   155    89   141    99   151    86    91
    138   143    96   101   148   153

    SFO  (index         Fragment          Generating    Expansion in Fragment Orbitals
  indx  incl.CFs)   Occup   Orb.Energy   FragmentType  Coeff.   Orbital     on Fragment
 --------------------------------------------------------------------------------------
     1       1       --         0.702 au  O             1.00      1 D:xy            1
                        (      19.099 eV)
     2       2       --         2.802 au  O             1.00      2 D:xy            1
                        (      76.238 eV)
     3       3       --         1.589 au  O             1.00      1 F:xyz           1
                        (      43.250 eV)
     4       4       --         7.596 au  O             1.00      2 F:xyz           1
                        (     206.694 eV)
     5       5      1.333      -0.427 au  O             0.71      1 P:y             2
                        (     -11.613 eV)              -0.71      1 P:y             3
     6       6       --         0.333 au  O             0.71      2 P:y             2
                        (       9.061 eV)              -0.71      2 P:y             3
     7       7       --         2.040 au  O             0.71      3 P:y             2
                        (      55.521 eV)              -0.71      3 P:y             3
     8       8       --        13.099 au  O             0.71      4 P:y             2
                        (     356.448 eV)              -0.71      4 P:y             3
     9       9       --         0.702 au  O             0.71      1 D:xy            2
                        (      19.099 eV)               0.71      1 D:xy            3
    10      10       --         2.802 au  O             0.71      2 D:xy            2
                        (      76.238 eV)               0.71      2 D:xy            3
    11      11       --         0.702 au  O             0.71      1 D:yz            2
                        (      19.099 eV)              -0.71      1 D:yz            3
    12      12       --         2.802 au  O             0.71      2 D:yz            2
                        (      76.238 eV)              -0.71      2 D:yz            3
    13      13       --         1.589 au  O             0.71      1 F:xyz           2
                        (      43.250 eV)               0.71      1 F:xyz           3
    14      14       --         7.596 au  O             0.71      2 F:xyz           2
                        (     206.694 eV)               0.71      2 F:xyz           3
    15      15       --         1.589 au  O             0.71      1 F:z2y           2
                        (      43.250 eV)              -0.71      1 F:z2y           3
    16      16       --         7.596 au  O             0.71      2 F:z2y           2
                        (     206.694 eV)              -0.71      2 F:z2y           3
    17      17       --         1.589 au  O             0.71      1 F:y             2
                        (      43.250 eV)              -0.71      1 F:y             3
    18      18       --         7.596 au  O             0.71      2 F:y             2
                        (     206.694 eV)              -0.71      2 F:y             3



                                       === B1 ===
 Nr. of SFOs :   40
 Cartesian basis functions that participate in this irrep (total number =    84) :
      9    12    15    18    23    29    38    48    33    36
     43    46    53   105    54   106    55   107    56   108
     57   109    58   110    59   111    60   112    63   115
     66   118    69   121    72   124    61   113    64   116
     67   119    70   122    78   130    84   136    75   127
     81   133    73    76   125   128    79    82   131   134
     94   146   104   156    90   142   100   152    87    92
    139   144    97   102   149   154    85    88   137   140
     95    98   147   150

    SFO  (index         Fragment          Generating    Expansion in Fragment Orbitals
  indx  incl.CFs)   Occup   Orb.Energy   FragmentType  Coeff.   Orbital     on Fragment
 --------------------------------------------------------------------------------------
     1       1      1.333      -0.427 au  O             1.00      1 P:x             1
                        (     -11.613 eV)
     2       2       --         0.333 au  O             1.00      2 P:x             1
                        (       9.061 eV)
     3       3       --         2.040 au  O             1.00      3 P:x             1
                        (      55.521 eV)
     4       4       --        13.099 au  O             1.00      4 P:x             1
                        (     356.448 eV)
     5       5       --         0.702 au  O             1.00      1 D:xz            1
                        (      19.099 eV)
     6       6       --         2.802 au  O             1.00      2 D:xz            1
                        (      76.238 eV)
     7       7       --         1.589 au  O             1.00      1 F:z2x           1
                        (      43.250 eV)
     8       8       --         7.596 au  O             1.00      2 F:z2x           1
                        (     206.694 eV)
     9       9       --         1.589 au  O             1.00      1 F:x             1
                        (      43.250 eV)
    10      10       --         7.596 au  O             1.00      2 F:x             1
                        (     206.694 eV)
    11      11      2.000     -20.815 au  O             0.71      1 S               2
                        (    -566.402 eV)              -0.71      1 S               3
    12      12      2.000      -1.312 au  O             0.71      2 S               2
                        (     -35.714 eV)              -0.71      2 S               3
    13      13       --         0.089 au  O             0.71      3 S               2
                        (       2.415 eV)              -0.71      3 S               3
    14      14       --         0.630 au  O             0.71      4 S               2
                        (      17.147 eV)              -0.71      4 S               3
    15      15       --         2.884 au  O             0.71      5 S               2
                        (      78.487 eV)              -0.71      5 S               3
    16      16       --        12.655 au  O             0.71      6 S               2
                        (     344.364 eV)              -0.71      6 S               3
    17      17       --        54.277 au  O             0.71      7 S               2
                        (    1476.963 eV)              -0.71      7 S               3
    18      18       --       332.662 au  O             0.71      8 S               2
                        (    9052.201 eV)              -0.71      8 S               3
    19      19      1.333      -0.427 au  O             0.71      1 P:x             2
                        (     -11.613 eV)               0.71      1 P:x             3
    20      20       --         0.333 au  O             0.71      2 P:x             2
                        (       9.061 eV)               0.71      2 P:x             3
    21      21       --         2.040 au  O             0.71      3 P:x             2
                        (      55.521 eV)               0.71      3 P:x             3
    22      22       --        13.099 au  O             0.71      4 P:x             2
                        (     356.448 eV)               0.71      4 P:x             3
    23      23      1.333      -0.427 au  O             0.71      1 P:z             2
                        (     -11.613 eV)              -0.71      1 P:z             3
    24      24       --         0.333 au  O             0.71      2 P:z             2
                        (       9.061 eV)              -0.71      2 P:z             3
    25      25       --         2.040 au  O             0.71      3 P:z             2
                        (      55.521 eV)              -0.71      3 P:z             3
    26      26       --        13.099 au  O             0.71      4 P:z             2
                        (     356.448 eV)              -0.71      4 P:z             3
    27      27       --         0.702 au  O             0.71      1 D:z2            2
                        (      19.099 eV)              -0.71      1 D:z2            3
    28      28       --         2.802 au  O             0.71      2 D:z2            2
                        (      76.238 eV)              -0.71      2 D:z2            3
    29      29       --         0.702 au  O             0.71      1 D:x2-y2         2
                        (      19.099 eV)              -0.71      1 D:x2-y2         3
    30      30       --         2.802 au  O             0.71      2 D:x2-y2         2
                        (      76.238 eV)              -0.71      2 D:x2-y2         3
    31      31       --         0.702 au  O             0.71      1 D:xz            2
                        (      19.099 eV)               0.71      1 D:xz            3
    32      32       --         2.802 au  O             0.71      2 D:xz            2
                        (      76.238 eV)               0.71      2 D:xz            3
    33      33       --         1.589 au  O             0.71      1 F:z3            2
                        (      43.250 eV)              -0.71      1 F:z3            3
    34      34       --         7.596 au  O             0.71      2 F:z3            2
                        (     206.694 eV)              -0.71      2 F:z3            3
    35      35       --         1.589 au  O             0.71      1 F:z             2
                        (      43.250 eV)              -0.71      1 F:z             3
    36      36       --         7.596 au  O             0.71      2 F:z             2
                        (     206.694 eV)              -0.71      2 F:z             3
    37      37       --         1.589 au  O             0.71      1 F:z2x           2
                        (      43.250 eV)               0.71      1 F:z2x           3
    38      38       --         7.596 au  O             0.71      2 F:z2x           2
                        (     206.694 eV)               0.71      2 F:z2x           3
    39      39       --         1.589 au  O             0.71      1 F:x             2
                        (      43.250 eV)               0.71      1 F:x             3
    40      40       --         7.596 au  O             0.71      2 F:x             2
                        (     206.694 eV)               0.71      2 F:x             3



                                       === B2 ===
 Nr. of SFOs :   24
 Cartesian basis functions that participate in this irrep (total number =    44) :
     10    13    16    19    25    31    41    51    34    39
     44    49    62   114    65   117    68   120    71   123
     77   129    83   135    74   126    80   132    93   145
    103   155    89   141    99   151    86    91   138   143
     96   101   148   153

    SFO  (index         Fragment          Generating    Expansion in Fragment Orbitals
  indx  incl.CFs)   Occup   Orb.Energy   FragmentType  Coeff.   Orbital     on Fragment
 --------------------------------------------------------------------------------------
     1       1      1.333      -0.427 au  O             1.00      1 P:y             1
                        (     -11.613 eV)
     2       2       --         0.333 au  O             1.00      2 P:y             1
                        (       9.061 eV)
     3       3       --         2.040 au  O             1.00      3 P:y             1
                        (      55.521 eV)
     4       4       --        13.099 au  O             1.00      4 P:y             1
                        (     356.448 eV)
     5       5       --         0.702 au  O             1.00      1 D:yz            1
                        (      19.099 eV)
     6       6       --         2.802 au  O             1.00      2 D:yz            1
                        (      76.238 eV)
     7       7       --         1.589 au  O             1.00      1 F:z2y           1
                        (      43.250 eV)
     8       8       --         7.596 au  O             1.00      2 F:z2y           1
                        (     206.694 eV)
     9       9       --         1.589 au  O             1.00      1 F:y             1
                        (      43.250 eV)
    10      10       --         7.596 au  O             1.00      2 F:y             1
                        (     206.694 eV)
    11      11      1.333      -0.427 au  O             0.71      1 P:y             2
                        (     -11.613 eV)               0.71      1 P:y             3
    12      12       --         0.333 au  O             0.71      2 P:y             2
                        (       9.061 eV)               0.71      2 P:y             3
    13      13       --         2.040 au  O             0.71      3 P:y             2
                        (      55.521 eV)               0.71      3 P:y             3
    14      14       --        13.099 au  O             0.71      4 P:y             2
                        (     356.448 eV)               0.71      4 P:y             3
    15      15       --         0.702 au  O             0.71      1 D:xy            2
                        (      19.099 eV)              -0.71      1 D:xy            3
    16      16       --         2.802 au  O             0.71      2 D:xy            2
                        (      76.238 eV)              -0.71      2 D:xy            3
    17      17       --         0.702 au  O             0.71      1 D:yz            2
                        (      19.099 eV)               0.71      1 D:yz            3
    18      18       --         2.802 au  O             0.71      2 D:yz            2
                        (      76.238 eV)               0.71      2 D:yz            3
    19      19       --         1.589 au  O             0.71      1 F:xyz           2
                        (      43.250 eV)              -0.71      1 F:xyz           3
    20      20       --         7.596 au  O             0.71      2 F:xyz           2
                        (     206.694 eV)              -0.71      2 F:xyz           3
    21      21       --         1.589 au  O             0.71      1 F:z2y           2
                        (      43.250 eV)               0.71      1 F:z2y           3
    22      22       --         7.596 au  O             0.71      2 F:z2y           2
                        (     206.694 eV)               0.71      2 F:z2y           3
    23      23       --         1.589 au  O             0.71      1 F:y             2
                        (      43.250 eV)               0.71      1 F:y             3
    24      24       --         7.596 au  O             0.71      2 F:y             2
                        (     206.694 eV)               0.71      2 F:y             3

 Total number of charge fitting functions (nprimf)       552
 Total number of Cartesian basis functions (naos)        156
 Total number of Cartesian core functions  (ncos)          0

1
 ***************************************************************************************************



                                              ***********************
                                              *  T E C H N I C A L  *
                                              ***********************
  



 =============================================================
 P A R A L L E L I Z A T I O N  and  V E C T O R I Z A T I O N
 =============================================================
  
 Nr of parallel processes:                                4
 Maximum vector length in NumInt loops:                 128

 IO buffersize (Mb):                                     64.000000



 =====================
 S C F   U P D A T E S
 =====================
  
 Max. nr. of cycles:                               300
 Convergence criterion:                              0.0000010000
   secondary criterion:                              0.0010000000

 Mix parameter (when DIIS does not apply):           0.2000000000
 Mixed ADIIS+DIIS will be used
    Max number of expansion vectors:                10
    Pure ADIIS when Max([F,P]) is above              0.1000000000
    Pure DIIS when Max([F,P]) is below               0.0010000000
 Automatic ElectronSmearing (in case of problematic SCF convergence) disabled



 =================
 P R E C I S I O N  ***  (General: NumInt, NeglectFunctionTails, ...)  ***
 =================
  

 NumInt:           Target precision:                10.0000000000
 -------           Initial precision:               10.0000000000
                   Min. precision (optimization):   10.0000000000

 Neglect Functions:          Basis functions:        0.1000000000E-11
 ------------------          Fit functions:          0.1000000000E-11



 ===========================
 L I N E A R   S C A L I N G
 ===========================
  

 Cut-off radii density fit:                        0.1000000000E-13
 Overlap cut-off criterion AO matrix elements:     0.1000000000E-11
 Cut-offs for Coulomb potential and fitted density:0.1000000000E-13
 Cut-off criterion for Coulomb multipole terms:    0.1000000000E-13
 Progressive Convergence parameter:                 0.000000000    
1
 ***************************************************************************************************



                                            ***************************
                                            *  C O M P U T A T I O N  *
                                            ***************************
  

 Number of elements of the density matrix on this node (used, total):      4082     12246



 ===========================================
 Numerical Integration : Fuzzy Cells (Becke)
 ===========================================
  
 Becke grid quality: EXCELLENT      
  
 Lebedev angular grid order:             min:  17 max:  47
 Nr. of radial points:                   min: 127 max: 127

 Total nr. of points:      47788
 Nr. of blocks:              374
 Block length:               128
 Nr. of dummy points:         84


 Test of Precision of the Numerical Integration Grid
 ===================================================

 Integral of the Total Core Density:                   0.00000000000000



 ========================
 Density Fitting (zlmFit)
 ========================
  
 ZlmFit Fit Quality: EXCELLENT      
  
 Max L-expansion:                        min:  15 max:  15
 Nr. of radial interpolation points:     min: 280 max: 280



 ======================
 RI Hartree-Fock Scheme
 ======================
  
 Fit Set Quality     : EXCELLENT
 Integration Quality : EXCELLENT
 Threshold Quality   : EXCELLENT
 Response Quality    : DEFAULT
 Is Range Separated  :  F
 
 RIHartreeFock Dependency: number of modified vectors:           4



 =====
 S C F  ***  ScaSCF  ***
 =====
  
 Initial density matrix is calculated as sum of fragments

 CYCLE    1
 SCF Error: norm([F,P])=      3.728768700897, max([F,P])=      1.759426561919
 orbitals (Q,E):
 ---------------
 A1 :1...16          ( 2.00   -20.8852)  ( 2.00   -20.8508)  ( 2.00    -2.0429)  ( 2.00    -1.0785)
                     ( 2.00    -0.7403)  ( 2.00    -0.3830)  ( 0.00     0.0777)  ( 0.00     0.0923)
                     ( 0.00     0.1369)  ( 0.00     0.3366)  ( 0.00     0.3809)  ( 0.00     0.3887)
                     ( 0.00     0.5802)  ( 0.00     0.6429)  ( 0.00     0.9097)  ( 0.00     0.9831)
 A2 :1...11          ( 2.00    -0.4595)  ( 0.00     0.3517)  ( 0.00     0.7347)  ( 0.00     1.0060)
                     ( 0.00     1.3414)  ( 0.00     1.6053)  ( 0.00     1.8055)  ( 0.00     2.1129)
                     ( 0.00     2.3662)  ( 0.00     3.0735)  ( 0.00     3.5254)
 B1 :1...14          ( 2.00   -20.8510)  ( 2.00    -1.5793)  ( 2.00    -0.7583)  ( 2.00    -0.4219)
                     ( 0.00     0.0853)  ( 0.00     0.2302)  ( 0.00     0.3454)  ( 0.00     0.3845)
                     ( 0.00     0.4844)  ( 0.00     0.7589)  ( 0.00     0.9568)  ( 0.00     1.2049)
                     ( 0.00     1.3498)  ( 0.00     1.3855)
 B2 :1...11          ( 2.00    -0.7449)  ( 0.00    -0.2240)  ( 0.00     0.2850)  ( 0.00     0.3907)
                     ( 0.00     0.6258)  ( 0.00     0.9481)  ( 0.00     1.2096)  ( 0.00     1.4440)
                     ( 0.00     1.7036)  ( 0.00     1.8327)  ( 0.00     1.9145)

 CYCLE    2
   MIX coefficients:  0.8000  0.2000
 SCF Error: norm([F,P])=      0.906769009833, max([F,P])=      0.306635445515
 orbitals (Q,E):
 ---------------
 A1 :1...7           ( 2.00   -20.9963)  ( 2.00   -20.8004)  ( 2.00    -2.0158)  ( 2.00    -1.0922)
                     ( 2.00    -0.7760)  ( 2.00    -0.4224)  ( 0.00     0.0823)
 A2 :1...2           ( 2.00    -0.4643)  ( 0.00     0.3542)
 B1 :1...5           ( 2.00   -20.8006)  ( 2.00    -1.5615)  ( 2.00    -0.7745)  ( 2.00    -0.4430)
                     ( 0.00     0.0872)
 B2 :1...2           ( 2.00    -0.7764)  ( 0.00    -0.2074)

 CYCLE    3
  SDIIS (wt  0.000): -0.0075 -1.2148  2.2223
 A-DIIS (wt  1.000):  0.0000  0.0000  1.0000
  DIIS coefficients:  0.0000  0.0000  1.0000
 SCF Error: norm([F,P])=      0.530934264363, max([F,P])=      0.151437266374
 orbitals (Q,E):
 ---------------
 A1 :1...7           ( 2.00   -21.2043)  ( 2.00   -20.6682)  ( 2.00    -1.8573)  ( 2.00    -1.1438)
                     ( 2.00    -0.8897)  ( 2.00    -0.5582)  ( 0.00     0.0813)
 A2 :1...2           ( 2.00    -0.4962)  ( 0.00     0.3609)
 B1 :1...5           ( 2.00   -20.6683)  ( 2.00    -1.4825)  ( 2.00    -0.8360)  ( 2.00    -0.5502)
                     ( 0.00     0.0934)
 B2 :1...2           ( 2.00    -0.8712)  ( 0.00    -0.0982)

 CYCLE    4
  SDIIS (wt  0.000):  0.8854 -0.7795  0.8941
 A-DIIS (wt  1.000):  0.0000  0.3361  0.6639
  DIIS coefficients:  0.0000  0.3361  0.6639
 SCF Error: norm([F,P])=      0.478429589420, max([F,P])=      0.171525257908
 orbitals (Q,E):
 ---------------
 A1 :1...7           ( 2.00   -20.8392)  ( 2.00   -20.7496)  ( 2.00    -1.7449)  ( 2.00    -1.0930)
                     ( 2.00    -0.8246)  ( 2.00    -0.5498)  ( 0.00     0.0929)
 A2 :1...2           ( 2.00    -0.4991)  ( 0.00     0.3585)
 B1 :1...5           ( 2.00   -20.7498)  ( 2.00    -1.4420)  ( 2.00    -0.8054)  ( 2.00    -0.5719)
                     ( 0.00     0.0920)
 B2 :1...2           ( 2.00    -0.7791)  ( 0.00    -0.0488)

 CYCLE    5
  SDIIS (wt  0.416): -0.3346  0.3945  0.0750  0.8651
 A-DIIS (wt  0.584):  0.0000  0.0000  0.0000  1.0000
  DIIS coefficients: -0.1392  0.1641  0.0312  0.9439
 SCF Error: norm([F,P])=      0.169357731133, max([F,P])=      0.058822745923
 orbitals (Q,E):
 ---------------
 A1 :1...7           ( 2.00   -20.9723)  ( 2.00   -20.6842)  ( 2.00    -1.7674)  ( 2.00    -1.0976)
                     ( 2.00    -0.8405)  ( 2.00    -0.5491)  ( 0.00     0.0915)
 A2 :1...2           ( 2.00    -0.4822)  ( 0.00     0.3624)
 B1 :1...5           ( 2.00   -20.6843)  ( 2.00    -1.4362)  ( 2.00    -0.8043)  ( 2.00    -0.5554)
                     ( 0.00     0.0929)
 B2 :1...2           ( 2.00    -0.7979)  ( 0.00    -0.0506)

 CYCLE    6
  SDIIS (wt  0.608):  0.0744 -0.1384 -0.1316  0.1947  1.0008
 A-DIIS (wt  0.392):  0.0000  0.0000  0.0000  0.1229  0.8771
  DIIS coefficients:  0.0453 -0.0842 -0.0800  0.1666  0.9524
 SCF Error: norm([F,P])=      0.097139372626, max([F,P])=      0.039767299859
 orbitals (Q,E):
 ---------------
 A1 :1...7           ( 2.00   -20.9088)  ( 2.00   -20.7152)  ( 2.00    -1.7544)  ( 2.00    -1.0932)
                     ( 2.00    -0.8336)  ( 2.00    -0.5536)  ( 0.00     0.0935)
 A2 :1...2           ( 2.00    -0.4893)  ( 0.00     0.3612)
 B1 :1...5           ( 2.00   -20.7153)  ( 2.00    -1.4365)  ( 2.00    -0.8036)  ( 2.00    -0.5672)
                     ( 0.00     0.0925)
 B2 :1...2           ( 2.00    -0.7858)  ( 0.00    -0.0459)

 CYCLE    7
  SDIIS (wt  0.902): -0.0088  0.0211  0.0219 -0.2292 -0.1179  1.3129
 A-DIIS (wt  0.098):  0.0000  0.0000  0.0000  0.0000  0.0000  1.0000
  DIIS coefficients: -0.0079  0.0191  0.0197 -0.2068 -0.1064  1.2823
 SCF Error: norm([F,P])=      0.028040519372, max([F,P])=      0.010688598300
 orbitals (Q,E):
 ---------------
 A1 :1...7           ( 2.00   -20.9206)  ( 2.00   -20.7065)  ( 2.00    -1.7565)  ( 2.00    -1.0931)
                     ( 2.00    -0.8354)  ( 2.00    -0.5534)  ( 0.00     0.0932)
 A2 :1...2           ( 2.00    -0.4880)  ( 0.00     0.3616)
 B1 :1...5           ( 2.00   -20.7066)  ( 2.00    -1.4355)  ( 2.00    -0.8028)  ( 2.00    -0.5655)
                     ( 0.00     0.0926)
 B2 :1...2           ( 2.00    -0.7866)  ( 0.00    -0.0455)

 CYCLE    8
  SDIIS (wt  0.982): -0.0005  0.0059  0.0150  0.0429 -0.1336 -0.4831  1.5534
 A-DIIS (wt  0.018):  0.0000  0.0000  0.0000  0.0000  0.0000  0.0000  1.0000
  DIIS coefficients: -0.0005  0.0058  0.0147  0.0421 -0.1312 -0.4743  1.5434
 SCF Error: norm([F,P])=      0.004063322010, max([F,P])=      0.002789113704
 orbitals (Q,E):
 ---------------
 A1 :1...7           ( 2.00   -20.9203)  ( 2.00   -20.7074)  ( 2.00    -1.7564)  ( 2.00    -1.0932)
                     ( 2.00    -0.8358)  ( 2.00    -0.5535)  ( 0.00     0.0932)
 A2 :1...2           ( 2.00    -0.4890)  ( 0.00     0.3616)
 B1 :1...5           ( 2.00   -20.7075)  ( 2.00    -1.4358)  ( 2.00    -0.8029)  ( 2.00    -0.5658)
                     ( 0.00     0.0926)
 B2 :1...2           ( 2.00    -0.7860)  ( 0.00    -0.0453)

 CYCLE    9
  SDIIS (wt  1.000):  0.0026 -0.0062 -0.0084  0.0145  0.0694 -0.0269 -0.5507  1.5058
  DIIS coefficients:  0.0026 -0.0062 -0.0084  0.0145  0.0694 -0.0269 -0.5507  1.5058
 SCF Error: norm([F,P])=      0.001346440725, max([F,P])=      0.000634877640
 orbitals (Q,E):
 ---------------
 A1 :1...7           ( 2.00   -20.9203)  ( 2.00   -20.7071)  ( 2.00    -1.7564)  ( 2.00    -1.0932)
                     ( 2.00    -0.8358)  ( 2.00    -0.5533)  ( 0.00     0.0932)
 A2 :1...2           ( 2.00    -0.4892)  ( 0.00     0.3616)
 B1 :1...5           ( 2.00   -20.7072)  ( 2.00    -1.4357)  ( 2.00    -0.8028)  ( 2.00    -0.5656)
                     ( 0.00     0.0926)
 B2 :1...2           ( 2.00    -0.7858)  ( 0.00    -0.0451)

 CYCLE   10
  SDIIS (wt  1.000):  0.0001  0.0000  0.0014 -0.0056 -0.0057  0.0323  0.0121 -0.3074  1.2727
  DIIS coefficients:  0.0001  0.0000  0.0014 -0.0056 -0.0057  0.0323  0.0121 -0.3074  1.2727
 SCF Error: norm([F,P])=      0.000308080674, max([F,P])=      0.000102307354
 orbitals (Q,E):
 ---------------
 A1 :1...7           ( 2.00   -20.9205)  ( 2.00   -20.7071)  ( 2.00    -1.7565)  ( 2.00    -1.0932)
                     ( 2.00    -0.8359)  ( 2.00    -0.5533)  ( 0.00     0.0931)
 A2 :1...2           ( 2.00    -0.4893)  ( 0.00     0.3616)
 B1 :1...5           ( 2.00   -20.7072)  ( 2.00    -1.4357)  ( 2.00    -0.8028)  ( 2.00    -0.5656)
                     ( 0.00     0.0926)
 B2 :1...2           ( 2.00    -0.7858)  ( 0.00    -0.0451)

 CYCLE   11
  SDIIS (wt  1.000): -0.0000  0.0001  0.0002  0.0002 -0.0022 -0.0037  0.0244 -0.0335 -0.1251  1.1395
  DIIS coefficients: -0.0000  0.0001  0.0002  0.0002 -0.0022 -0.0037  0.0244 -0.0335 -0.1251  1.1395
 SCF Error: norm([F,P])=      0.000042306959, max([F,P])=      0.000011287814
 orbitals (Q,E):
 ---------------
 A1 :1...7           ( 2.00   -20.9205)  ( 2.00   -20.7071)  ( 2.00    -1.7565)  ( 2.00    -1.0933)
                     ( 2.00    -0.8359)  ( 2.00    -0.5533)  ( 0.00     0.0931)
 A2 :1...2           ( 2.00    -0.4893)  ( 0.00     0.3616)
 B1 :1...5           ( 2.00   -20.7072)  ( 2.00    -1.4357)  ( 2.00    -0.8028)  ( 2.00    -0.5656)
                     ( 0.00     0.0926)
 B2 :1...2           ( 2.00    -0.7858)  ( 0.00    -0.0451)

 CYCLE   12
  SDIIS (wt  1.000): -0.0000 -0.0001  0.0001  0.0003 -0.0007 -0.0028  0.0116 -0.0126 -0.1913  1.1954
  DIIS coefficients: -0.0000 -0.0001  0.0001  0.0003 -0.0007 -0.0028  0.0116 -0.0126 -0.1913  1.1954
 SCF Error: norm([F,P])=      0.000007710673, max([F,P])=      0.000002410086
 orbitals (Q,E):
 ---------------
 A1 :1...7           ( 2.00   -20.9205)  ( 2.00   -20.7071)  ( 2.00    -1.7565)  ( 2.00    -1.0933)
                     ( 2.00    -0.8359)  ( 2.00    -0.5533)  ( 0.00     0.0931)
 A2 :1...2           ( 2.00    -0.4893)  ( 0.00     0.3616)
 B1 :1...5           ( 2.00   -20.7072)  ( 2.00    -1.4357)  ( 2.00    -0.8028)  ( 2.00    -0.5656)
                     ( 0.00     0.0926)
 B2 :1...2           ( 2.00    -0.7858)  ( 0.00    -0.0451)

 CYCLE   13
  SDIIS (wt  1.000):  0.0000 -0.0001 -0.0000  0.0005 -0.0003 -0.0028  0.0150 -0.0103 -0.3940  1.3921
  DIIS coefficients:  0.0000 -0.0001 -0.0000  0.0005 -0.0003 -0.0028  0.0150 -0.0103 -0.3940  1.3921
 SCF Error: norm([F,P])=      0.000002504851, max([F,P])=      0.000001022947
 orbitals (Q,E):
 ---------------
 A1 :1...7           ( 2.00   -20.9205)  ( 2.00   -20.7071)  ( 2.00    -1.7565)  ( 2.00    -1.0933)
                     ( 2.00    -0.8359)  ( 2.00    -0.5533)  ( 0.00     0.0931)
 A2 :1...2           ( 2.00    -0.4893)  ( 0.00     0.3616)
 B1 :1...5           ( 2.00   -20.7072)  ( 2.00    -1.4357)  ( 2.00    -0.8028)  ( 2.00    -0.5656)
                     ( 0.00     0.0926)
 B2 :1...2           ( 2.00    -0.7858)  ( 0.00    -0.0451)

 CYCLE   14
[...]
 A2           10             0.00        0.31214733388160E+01        84.9396
 B2           14             0.00        0.31483994180666E+01        85.6723
 B1           22             0.00        0.31578806871151E+01        85.9303
 A1           28             0.00        0.32009500663435E+01        87.1023
 A1           29             0.00        0.32529175906287E+01        88.5164
 B2           15             0.00        0.33216535830705E+01        90.3868
 B1           23             0.00        0.35230778212390E+01        95.8678
 A2           11             0.00        0.35706934128943E+01        97.1635
 A1           30             0.00        0.36973110341696E+01       100.6090
 B2           16             0.00        0.37192012972322E+01       101.2046
 A1           31             0.00        0.38143896811800E+01       103.7948
 A2           12             0.00        0.38267261286168E+01       104.1305
 B1           24             0.00        0.38678553059843E+01       105.2497
 A1           32             0.00        0.39084159677871E+01       106.3534
 B1           25             0.00        0.39388445166100E+01       107.1814
 A2           13             0.00        0.40256463666238E+01       109.5434
 B1           26             0.00        0.40536921826863E+01       110.3066
 B2           17             0.00        0.41920139219495E+01       114.0705
 A1           33             0.00        0.42335921741856E+01       115.2019
 A1           34             0.00        0.46933135468307E+01       127.7116
 B1           27             0.00        0.50611053978469E+01       137.7197
 A1           35             0.00        0.62047962220022E+01       168.8411
 B1           28             0.00        0.64317437038475E+01       175.0167
 B1           29             0.00        0.73245261726757E+01       199.3105
 A1           36             0.00        0.73938673126318E+01       201.1974
 B2           18             0.00        0.74281154784660E+01       202.1293
 A2           14             0.00        0.75026842035520E+01       204.1584
 B2           19             0.00        0.75168660560369E+01       204.5443
 A1           37             0.00        0.76108116396632E+01       207.1007
 A1           38             0.00        0.77587309691450E+01       211.1258
 B2           20             0.00        0.77969462852571E+01       212.1657
 B1           30             0.00        0.78969657538865E+01       214.8874
 A2           15             0.00        0.79197013790281E+01       215.5060
 B1           31             0.00        0.79781798195671E+01       217.0973
 A1           39             0.00        0.81937080166268E+01       222.9621
 A2           16             0.00        0.82665427342467E+01       224.9441
 B2           21             0.00        0.85156764592956E+01       231.7233
 B1           32             0.00        0.85301474732844E+01       232.1171
 A1           40             0.00        0.85957393285648E+01       233.9020
 A2           17             0.00        0.89689045897525E+01       244.0563
 B2           22             0.00        0.91553932301058E+01       249.1309
 B1           33             0.00        0.94773785235580E+01       257.8926
 B1           34             0.00        0.97616769852751E+01       265.6287
 A1           41             0.00        0.10408108139455E+02       283.2190
 A1           42             0.00        0.12953107176112E+02       352.4720
 B2           23             0.00        0.12980441953079E+02       353.2158
 B1           35             0.00        0.13989105457975E+02       380.6629
 A1           43             0.00        0.14320999439518E+02       389.6942
 A1           44             0.00        0.15513768648320E+02       422.1511
 A2           18             0.00        0.15627646754724E+02       425.2499
 B1           36             0.00        0.15709681496620E+02       427.4822
 A1           45             0.00        0.16304773794230E+02       443.6755
 B1           37             0.00        0.16336524826689E+02       444.5395
 B2           24             0.00        0.16447169862426E+02       447.5503
 A1           46             0.00        0.18599346311017E+02       506.1140
 B1           38             0.00        0.18923062117138E+02       514.9227
 A1           47             0.00        0.54579169089237E+02      1485.1748
 B1           39             0.00        0.56790460926431E+02      1545.3471
 A1           48             0.00        0.57613714086556E+02      1567.7489
 A1           49             0.00        0.33341582543891E+03      9072.7062
 B1           40             0.00        0.34130116675173E+03      9287.2773
 A1           50             0.00        0.34459466493383E+03      9376.8979


 All Electron Calculation, thus no Orbital Energies of the Core Orbitals are calculated



 =======================
 T O T A L   E N E R G Y  ***  (contributions)  ***
 =======================
  

*** Note ***

The requirements to the integration accuracy are somewhat higher than for bond energies.
One can expect an accuracy of roughly (accint-2) decimal places, where accint is the
general integration accuracy parameter.
The Coulomb energy is the sum of the Hartree energy (electron-electron Coulomb interaction)
and the nuclear-electron attraction energy. It includes the correction for the first-order
fit error in the Hartree energy.
The potential energy is the sum of the nuclear repulsion energy, the Coulomb energy,
and the exchange-correlation energy.

Kinetic energy           =          223.888333881967

Nuclear repulsion energy =           69.027000022559
Coulomb energy           =         -492.947515033968
XC energy                =          -24.329387488236
Total potential energy   =         -448.249902499645

----------------------------------------------------
Total energy             =         -224.361568617678
Virial theorem           =            2.002113708774
----------------------------------------------------

 Gross Charges per Atom (Z minus electrons)
 ==========================================
             0.3360   -0.1680   -0.1680
 Net Total: -0.00000000



 =================================================================
 M U L T I P O L E   D E R I V E D   C H A R G E   A N A L Y S I S
 =================================================================

 This charge analysis uses the atomic multipoles (obtained from the fitted density) up to some level X,
 and reconstructs these multipoles exactly (up to level X) by distributing charges over all atoms.
 This is achieved by using Lagrange multipliers and a weight function to keep the multipoles local.

 Dummy atoms can be included (by setting INCDUM in MDC-block to 1) to obtain a fractional charge.
 This is generally useful and necessary only for small symmetrical molecules, when there are not
 enough degrees of freedom to reconstruct the multipoles.

 Since the atomic multipoles are reconstructed up to level X,
 the molecular multipoles are represented also up to level X.
 The recommended level is to reconstruct up to quadrupole : -> MDC-q charges.

 See: M. Swart, P.Th. van Duijnen, J.G. Snijders, J.Comput.Chem., (2001), p. 79-88.

 ------------------------------------------------------------- 
 Atomic electronic multipole moments from SCF equations (a.u.)
 ------------------------------------------------------------- 

   atom        charge        dip-x     dip-y     dip-z      quad-xx   quad-xy   quad-xz   quad-yy   quad-yz   quad-zz
 --------------------------------------------------------------------------------------------------------------------
    1 O      0.257437    -0.000000 -0.000000  0.225665     0.269548  0.000000 -0.000000 -0.081292 -0.000000 -0.188256
    2 O     -0.128719     0.209356  0.000000 -0.108358     0.397285  0.000000 -0.377299 -0.140288 -0.000000 -0.256997
    3 O     -0.128719    -0.209356  0.000000 -0.108358     0.397285  0.000000  0.377299 -0.140288 -0.000000 -0.256997

 --------------------------------------- 
 Multipole derived atomic charges (a.u.)
 --------------------------------------- 

 The MDC-m charges are just the Monopole terms in the multipole expansion, while for the MDC-d charges
 also the Dipoles are reconstructed. The usually preferred charges are the MDC-q charges.
 These reconstruct the Monopoles, Dipoles and Quadrupoles (both atomic AND molecular).

        Atom    Level:     MDC-m        MDC-d        MDC-q
 ---------------------------------------------------------
     1     O            0.257437     0.250282     0.280366
     2     O           -0.128719    -0.125141    -0.140183
     3     O           -0.128719    -0.125141    -0.140183

 ------------------------------------------------ 
 Average absolute deviations in atomic multipoles
 ------------------------------------------------ 

 Stated here are the average differences between the atomic multipoles
 and the reconstructed atomic multipoles (from the distributed charges).
 If these values are not zero, this means there are not enough degrees of freedom,
 to be able to reconstruct the atomic multipoles. (This usually happens only
 for small and/or highly symmetric molecules). If this is the case, one could add
 dummy atoms as extra point charges (and setting INCDUM in MDC-block to 1).

 Level:                                 MDC-d        MDC-q
 ---------------------------------------------------------
 Charge   (a.u.)                       0.0000       0.0000
 Dipole   (Debye)                      0.0000       0.0970
 Quad.    (a.u.)                       0.1033       0.0439

 --------------------------------------- 
 Represented molecular multipole moments
 --------------------------------------- 

 Given here are the Molecular multipole moments from the atomic charges, and from the Fit Density.
 Note that the atomic charges represent the latter, NOT the ones from the Exact density.

            Q (a.u.)             Dipole moment (Debye)                                          Quadrupole moment (a.u.)
                                 x         y         z              xx        xy        xz        yy        yz        zz
------------------------------------------------------------------------------------------------------------------------
MDC-m        -0.0000       -0.0000    0.0000   -0.8184         -0.8760    0.0000   -0.0000    0.7400    0.0000    0.1360
MDC-d        -0.0000       -0.0000    0.0000   -0.7956         -0.8516    0.0000   -0.0000    0.7194    0.0000    0.1322
MDC-q        -0.0000       -0.0000    0.0000   -0.8913         -0.9540    0.0000   -0.0000    0.8059    0.0000    0.1481
 
Fit.Dens.    -0.0000       -0.0000    0.0000   -0.7956         -1.2539    0.0000   -0.0000    1.5057    0.0000   -0.2518



 =============
 Dipole Moment  ***  (Debye)  ***
 =============
  
 Vector   :         0.00000000      0.00000000     -0.79563104
 Magnitude:         0.79563104

 This molecular dipole moment is calculated with analytic integration



 =========================================
 Quadrupole Moment (Buckingham convention)  ***  (a.u.)  ***
 =========================================
  
      quad-xx        quad-xy        quad-xz        quad-yy        quad-yz        quad-zz
     -1.25391013     0.00000000    -0.00000000     1.50573139     0.00000000    -0.25182126

 This molecular quadrupole moment is calculated with analytic integration



 =======================================================================
 Electrostatic potential at the Nuclei due to electrons and other nuclei
 =======================================================================
  
         Atom                  Potential
         ----                  ---------
     1)   O                  21.99173592
     2)   O                  22.21071646
     3)   O                  22.21071646
 
 
 ========================
 No memory problems found
 ========================
 
 Maximum number of active allocate calls:         743
 
 *******************************************************************************

                             A D F   E X I T
 NORMAL TERMINATION



 =================
 Timing Statistics
 =================
  
 Total Used :                     CPU=       58.92      System=        0.67     Elapsed=       60.41

 Calls  Section                     ( Mean, Percentage )
 ---------------------------------------------------------------------------------------------------
     3  ><      ................      0.00    0.01             0.00    0.00             0.00    0.01
     1  INIT    ................      0.52    0.89             0.02    2.45             0.86    1.42
     1  GEOMET  ................      0.04    0.07             0.03    4.81             0.07    0.12
     1  FRAGM   ................      0.01    0.02             0.00    0.28             0.02    0.03
     1  INPUTA  ................      0.00    0.00             0.00    0.01             0.00    0.00
     1  ATDEN   ................      0.00    0.00             0.00    0.29             0.00    0.01
     1  MAINSY  ................      0.02    0.03             0.00    0.01             0.02    0.03
     1  SYMFIT  ................      0.00    0.00             0.00    0.00             0.00    0.00
     1  CORORT  ................      0.00    0.00             0.00    0.00             0.00    0.00
     1  SYMORB  ................      0.00    0.00             0.00    0.00             0.00    0.00
     1  FITINT  ................      0.13    0.22             0.00    0.15             0.13    0.22
     1  CLSMAT  ................      0.00    0.01             0.00    0.15             0.00    0.01
     1  ORTHON  ................      0.02    0.03             0.00    0.40             0.02    0.04
     1  GENPT   ................      0.08    0.14             0.01    1.99             0.10    0.16
     1  PTBAS   ................      0.08    0.13             0.01    1.20             0.08    0.14
    15  FOCKY   ................      3.67   93.34             0.04   80.59             3.73   92.72
    15  FOCKTR  ................      0.00    0.07             0.00    1.02             0.00    0.08
    15  SDIIS   ................      0.00    0.08             0.00    0.79             0.00    0.09
     1  COREPS  ................      2.57    4.36             0.02    2.56             2.60    4.30
     1  POPAN   ................      0.31    0.53             0.01    1.80             0.33    0.55
     1  DEBYE   ................      0.01    0.01             0.00    0.30             0.01    0.01
     1  EXIT PROCEDURE .........      0.03    0.05             0.01    1.20             0.04    0.06


 Currently Open Files (EXIT00)
 ====================

 Unit    Access Format  Status   Type       Ident (file)
 -------------------------------------------------------
   3      SEQ    FORM   TRANSP  NORMAL      LOGFILE
                                          ( logfile )


 Buffered I/O statistics
 =======================
 Memory available:                     67108864
 Number of records fitting in memory:     16131
 Input :   0.2% of                       135648  *4k bytes
 Output:   3.0% of                        24180  *4k bytes
 Records from serial files evicted:        2746
                    others evicted:        -281
 Hash table lookups:     363741 with      32146 conflicts (  8.84%)

 ***************************************************************************************************
 (LOGFILE)
 <Mar23-2019> <10:00:01>  ADF 2018  RunTime: Mar23-2019 10:00:01  Nodes: 1  Procs: 1
 <Mar23-2019> <10:00:01>  Oxygen (QZ, all electron, 8S 4P 2D 2F)
 <Mar23-2019> <10:00:01>  RunType   : CREATE
 <Mar23-2019> <10:00:01>  Net Charge: 0 (Nuclei minus Electrons)
 <Mar23-2019> <10:00:01>  Symmetry  : ATOM
  Coordinates
    Atom         X           Y           Z   (Angstrom)
    1.O         0.000000    0.000000    0.000000
 <Mar23-2019> <10:00:01>  >>>> CORORT
 <Mar23-2019> <10:00:02>  >>>> FITINT
 <Mar23-2019> <10:00:02>  >>>> CLSMAT
 <Mar23-2019> <10:00:02>  >>>> ORTHON
 <Mar23-2019> <10:00:02>  >>>> GENPT
 <Mar23-2019> <10:00:02>  Block Length=  81
 <Mar23-2019> <10:00:02>  >>>> PTBAS
 <Mar23-2019> <10:00:02>  >>>> CYCLE
 <Mar23-2019> <10:00:02>  CalcFitR12Fit
 <Mar23-2019> <10:00:02>  CalcFitCoeff
 <Mar23-2019> <10:00:02>              |Error|         MaxErr       Wt(A-DIIS)
 <Mar23-2019> <10:00:02>      1      0.00000000      0.00000000
 <Mar23-2019> <10:00:02>      2      9.91132878      4.13110620    100.0
 <Mar23-2019> <10:00:02>      3      2.97484677      2.32990073    100.0
 <Mar23-2019> <10:00:02>      4      1.33229858      0.57122548    100.0
 <Mar23-2019> <10:00:02>      5      0.73252539      0.34479391    100.0
 <Mar23-2019> <10:00:02>      6      0.32477209      0.14082594    100.0
 <Mar23-2019> <10:00:02>      7      0.16218953      0.07257303     72.3
 <Mar23-2019> <10:00:02>      8      0.05698668      0.02539201     24.6
 <Mar23-2019> <10:00:02>      9      0.00689465      0.00305469      2.1
 <Mar23-2019> <10:00:02>     10      0.00010073      0.00004792      0.0
 <Mar23-2019> <10:00:02>     11      0.00000274      0.00000146      0.0
 <Mar23-2019> <10:00:02>     12      0.00000008      0.00000004      0.0
 <Mar23-2019> <10:00:02>     13      0.00000000      0.00000000      0.0
 <Mar23-2019> <10:00:02>  SCF converged
 <Mar23-2019> <10:00:02>     14      0.00000000      0.00000000      0.0
 <Mar23-2019> <10:00:02>  >>>> POPAN
 <Mar23-2019> <10:00:02>  >>>> DEBYE
 <Mar23-2019> <10:00:02>  NORMAL TERMINATION
 <Mar23-2019> <10:00:02>  END
 <Mar23-2019> <10:00:03>  ADF 2018  RunTime: Mar23-2019 10:00:03  Nodes: 1  Procs: 4
 <Mar23-2019> <10:00:03>  O3
 <Mar23-2019> <10:00:03>  RunType   : SINGLE POINT
 <Mar23-2019> <10:00:03>  Net Charge: 0 (Nuclei minus Electrons)
 <Mar23-2019> <10:00:03>  Symmetry  : C(2V)
 <Mar23-2019> <10:00:03>  >>>> FRAGM
  Coordinates
    Atom         X           Y           Z   (Angstrom)
    1.O         0.000000    0.000000    0.000000
    2.O        -1.082525    0.000000    0.661836
    3.O         1.082525    0.000000    0.661836
 <Mar23-2019> <10:00:04>  >>>> CORORT
 <Mar23-2019> <10:00:04>  >>>> FITINT
 <Mar23-2019> <10:00:04>  >>>> CLSMAT
 <Mar23-2019> <10:00:04>  >>>> ORTHON
 <Mar23-2019> <10:00:04>  >>>> GENPT
 <Mar23-2019> <10:00:04>  Block Length= 128
 <Mar23-2019> <10:00:04>  >>>> PTBAS
 <Mar23-2019> <10:00:04>  >>>> CYCLE
 <Mar23-2019> <10:00:07>  CalcFitR12Fit
 <Mar23-2019> <10:00:08>  CalcFitCoeff
 <Mar23-2019> <10:00:19>              |Error|         MaxErr       Wt(A-DIIS)
 <Mar23-2019> <10:00:19>      1      3.72876870      1.75942656
 <Mar23-2019> <10:00:23>      2      0.90676901      0.30663545    100.0
 <Mar23-2019> <10:00:25>      3      0.53093426      0.15143727    100.0
 <Mar23-2019> <10:00:28>      4      0.47842959      0.17152526    100.0
 <Mar23-2019> <10:00:32>      5      0.16935773      0.05882275     58.4
 <Mar23-2019> <10:00:35>      6      0.09713937      0.03976730     39.2
 <Mar23-2019> <10:00:38>      7      0.02804052      0.01068860      9.8
 <Mar23-2019> <10:00:41>      8      0.00406332      0.00278911      1.8
 <Mar23-2019> <10:00:44>      9      0.00134644      0.00063488      0.0
 <Mar23-2019> <10:00:46>     10      0.00030808      0.00010231      0.0
 <Mar23-2019> <10:00:49>     11      0.00004231      0.00001129      0.0
 <Mar23-2019> <10:00:52>     12      0.00000771      0.00000241      0.0
 <Mar23-2019> <10:00:54>     13      0.00000250      0.00000102      0.0
 <Mar23-2019> <10:00:57>     14      0.00000077      0.00000033      0.0
 <Mar23-2019> <10:00:59>  SCF converged
 <Mar23-2019> <10:01:00>     15      0.00000017      0.00000006      0.0
 <Mar23-2019> <10:01:03>   Total energy       -224.36156862 a.u.
 <Mar23-2019> <10:01:03>  >>>> POPAN
 <Mar23-2019> <10:01:03>  >>>> DEBYE
 <Mar23-2019> <10:01:03>  NORMAL TERMINATION
 <Mar23-2019> <10:01:03>  END
