 
Create Be   file=ET-pVQZ-Be
XC
  HartreeFock
End
  HartreeFock

 *******************************************************************************
 *                                                                             *
 *  -------------------------------------                                      *
 *   Amsterdam Density Functional  (ADF)         2018                          *
 *  -------------------------------------                                      *
 *                                               r70630 2018-11-24             *
 *                                                                             *
 *                                                                             *
 *                              =================                              *
 *                              |               |                              *
 *                              |     A D F     |                              *
 *                              |               |                              *
 *                              =================                              *
 *                                                                             *
 *                                                                             *
 *   Online information and documentation:  https://www.scm.com/support/       *
 *   E-mail:  support@scm.com   info@scm.com                                   *
 *                                                                             *
 *   Scientific publications using ADF results must be properly referenced     *
 *   See the User Manuals (or the web site) for recommended citations          *
 *   The terms and conditions of the End User License Agreement apply to       *
 *   the use of ADF, https://www.scm.com/license-terms/                        *
 *                                                                             *
 **********************  x86_64_linux_intel / intelmpi  ************************
 
 Licensed to: Mr. Vladimir Konjkov / Florida Institute of Technology / Melbourne / Florida / USA
 SCM User ID: u21173
  
 ADF 2018  RunTime: Mar23-2019 10:00:02  Nodes: 1  Procs: 1

 Temporary files are created in /tmp/kid_0.1432420755

  6S 3P 1D 0F even-tempered basis for Be



 ===========================
 A T T A C H E D   F I L E S
 ===========================
  
 CREATE - Data File:    ET-pVQZ-Be
                        6S 3P 1D 0F even-tempered basis for Be



 ===============================
 M O D E L   P A R A M E T E R S
 ===============================
  
 DENSITY FUNCTIONAL POTENTIAL (scf)
    Hybrid:                            HARTREEFOCK                             == Not Default ==

 SPIN  (restricted / unrestr.)
    Molecule:                          Restricted                               

 OTHER ASPECTS
    Relativistic Corrections:          ---                                      

    Nuclear Charge Density Model:      Point Charge Nuclei                      
    Core Treatment:                    Frozen Orbital(s)                        

    Hyperfine or Zeeman Interaction:   ---                                      



 =====================================
 S Y M M E T R Y ,   E L E C T R O N S
 =====================================
  
 Symmetry: ATOM

 Irreducible Representations, including subspecies
 -------------------------------------------------
 S
 P:x  P:y  P:z
 D:z2  D:x2-y2  D:xy  D:xz  D:yz
 F:z3  F:z  F:xyz  F:z2x  F:z2y  F:x  F:y


 Configuration of Valence Electrons
 ==================================

          Occupation Numbers
          -------------------------------------------------
 S        2*2
 P        0
 D        0
 F        0
          -------------------------------------------------

 Total:   4

 Net Charge: 0 (Nuclei minus Electrons)

 Preset values for MO occupations will be applied through SCF cycle no. 1000000
 Thereafter, the program will assign electrons to MOs that are spatially
 similar to the occupied MOs in a "reference" cycle ("KeepOrbitals").
 The reference cycle is always the PREVIOUS cycle: it will evolve with
 the SCF procedure.



 ================================
 (Slater-type)  F U N C T I O N S  ***  (Basis and Fit)  ***
 ================================
  

 Atom Type    1  (Be)
 ==============

 Valence Basis Sets:  10
 -----------------------
   1 S    6.201478
   1 S    3.684776
   1 S    2.189410
   1 S    1.300897
   1 S    0.772963
   1 S    0.459277
   2 P    1.692000
   2 P    0.940000
   2 P    0.522222
   3 D    1.900000

 Charge Fitting Sets (for the computation of the Coulomb Potential):  41
 -----------------------------------------------------------------------
   1 S   20.635418
   1 S   14.197053
   1 S    9.767494
   1 S    6.719982
   1 S    4.623310
   1 S    3.180812
   1 S    2.188381
   1 S    1.505594
   1 S    1.035840
   1 S    0.712652
   2 P   18.182907
   2 P   12.085681
   2 P    8.033021
   2 P    5.339329
   2 P    3.548906
   2 P    2.358861
   2 P    1.567870
   2 P    1.042120
   2 P    0.692669
   3 D   18.191611
   3 D   12.739224
   3 D    8.921025
   3 D    6.247216
   3 D    4.374801
   3 D    3.063586
   3 D    2.145369
   3 D    1.502359
   3 D    1.052072
   3 D    0.736745
   4 F   12.261329
   4 F    9.015683
   4 F    6.629178
   4 F    4.874395
   4 F    3.584114
   4 F    2.635378
   4 F    1.937778
   5 G    8.677910
   5 G    6.544427
   5 G    4.935465
   5 G    3.722070
   5 G    2.806991


 BAS: List of all Elementary Cartesian Basis Functions
 =====================================================

 The numbering in the list below (to the right of the function characteristics) is referred
 to in print-outs of MO eigenvectors and Mulliken populations in the BAS representation
 (as contrasted to the SFO representation).

 Notes:
 1. The functions are characterized by a polynomial prefactor (powers of x,y,z and r) and
    an exponential decay factor alpha.
 2. Since the basis sets are specific for an atom TYPE, the individual functions occur on
    all atoms of that type.
 3. The word 'Core' in the left margin signals that it is a Core Function (CF) : not a
    degree of freedom in the valence set, but only used to ensure orthogonalization of
    the other valence basis functions on the frozen Core Orbitals.


 (power of) X  Y  Z  R     Alpha  on Atom
            ==========     =====     ==========

 Be                                   1
                                  ---------------------------------------------------------------------------
            0  0  0  0     6.201      1
            0  0  0  0     3.685      2
            0  0  0  0     2.189      3
            0  0  0  0     1.301      4
            0  0  0  0     0.773      5
            0  0  0  0     0.459      6
            1  0  0  0     1.692      7
            0  1  0  0     1.692      8
            0  0  1  0     1.692      9
            1  0  0  0     0.940     10
            0  1  0  0     0.940     11
            0  0  1  0     0.940     12
            1  0  0  0     0.522     13
            0  1  0  0     0.522     14
            0  0  1  0     0.522     15
            2  0  0  0     1.900     16
            1  1  0  0     1.900     17
            1  0  1  0     1.900     18
            0  2  0  0     1.900     19
            0  1  1  0     1.900     20
            0  0  2  0     1.900     21

 Total number of charge fitting functions (nprimf)       242
 Total number of Cartesian basis functions (naos)         21
 Total number of Cartesian core functions  (ncos)          0



 BAS: List of all Elementary Cartesian Basis Functions
 =====================================================

 The numbering in the list below (to the right of the function characteristics) is referred
 to in print-outs of MO eigenvectors and Mulliken populations in the BAS representation
 (as contrasted to the SFO representation).

 Notes:
 1. The functions are characterized by a polynomial prefactor (powers of x,y,z and r) and
    an exponential decay factor alpha.
 2. Since the basis sets are specific for an atom TYPE, the individual functions occur on
    all atoms of that type.
 3. The word 'Core' in the left margin signals that it is a Core Function (CF) : not a
    degree of freedom in the valence set, but only used to ensure orthogonalization of
    the other valence basis functions on the frozen Core Orbitals.


 (power of) X  Y  Z  R     Alpha  on Atom
            ==========     =====     ==========

 Be                                   1
                                  ---------------------------------------------------------------------------
            0  0  0  0     6.201      1
            0  0  0  0     3.685      2
            0  0  0  0     2.189      3
            0  0  0  0     1.301      4
            0  0  0  0     0.773      5
            0  0  0  0     0.459      6
            1  0  0  0     1.692      7
            0  1  0  0     1.692      8
            0  0  1  0     1.692      9
            1  0  0  0     0.940     10
            0  1  0  0     0.940     11
            0  0  1  0     0.940     12
            1  0  0  0     0.522     13
            0  1  0  0     0.522     14
            0  0  1  0     0.522     15
            2  0  0  0     1.900     16
            1  1  0  0     1.900     17
            1  0  1  0     1.900     18
            0  2  0  0     1.900     19
            0  1  1  0     1.900     20
            0  0  2  0     1.900     21
1
 ***************************************************************************************************



                                              ***********************
                                              *  T E C H N I C A L  *
                                              ***********************
  



 =============================================================
 P A R A L L E L I Z A T I O N  and  V E C T O R I Z A T I O N
 =============================================================
  
 Nr of parallel processes:                                1
 Maximum vector length in NumInt loops:                 128

 IO buffersize (Mb):                                     64.000000



 =====================
 S C F   U P D A T E S
 =====================
  
 Max. nr. of cycles:                               300
 Convergence criterion:                              0.0000000100
   secondary criterion:                              0.0000000100

 Mix parameter (when DIIS does not apply):           0.2000000000
 Special mix parameter for the first cycle:          1.0000000000
 Mixed ADIIS+DIIS will be used
    Max number of expansion vectors:                10
    Pure ADIIS when Max([F,P]) is above              0.1000000000
    Pure DIIS when Max([F,P]) is below               0.0010000000
 Automatic ElectronSmearing (in case of problematic SCF convergence) disabled



 =================
 P R E C I S I O N  ***  (General: NumInt, NeglectFunctionTails, ...)  ***
 =================
  

 NumInt:           Target precision:                12.0000000000
 -------           Initial precision:               10.0000000000
                   Min. precision (optimization):   10.0000000000

 Neglect Functions:          Basis functions:        0.1000000000E-13
 ------------------          Fit functions:          0.1000000000E-13



 ===========================
 L I N E A R   S C A L I N G
 ===========================
  

 Cut-off radii density fit:                        0.1000000000E-97
 Overlap cut-off criterion AO matrix elements:     0.1000000000E-97
 Cut-offs for Coulomb potential and fitted density:0.1000000000E-97
 Cut-off criterion for Coulomb multipole terms:    0.1000000000E-97
 Progressive Convergence parameter:                 0.000000000    
1
 ***************************************************************************************************



                                            ***************************
                                            *  C O M P U T A T I O N  *
                                            ***************************
  

 Number of elements of the density matrix on this node (used, total):       231       231



 ===========================================
 Numerical Integration : Fuzzy Cells (Becke)
 ===========================================
  
 Becke grid quality: VERYGOOD       
  
 Lebedev angular grid order:             min:  13 max:  41
 Nr. of radial points:                   min:  68 max:  68

 Total nr. of points:         68
 Nr. of blocks:                1
 Block length:                68
 Nr. of dummy points:          0


 Test of Precision of the Numerical Integration Grid
 ===================================================

 Integral of the Total Core Density:                   0.00000000000000



 ========================
 Density Fitting (zlmFit)
 ========================
  
 ZlmFit Fit Quality: VERYGOOD       
  
 Max L-expansion:                        min:   0 max:   0
 Nr. of radial interpolation points:     min: 240 max: 240



 ======================
 RI Hartree-Fock Scheme
 ======================
  
 Fit Set Quality     : NORMAL
 Integration Quality : NORMAL
 Threshold Quality   : NORMAL
 Response Quality    : DEFAULT
 Is Range Separated  :  F
 
 RIHartreeFock Dependency: number of modified vectors:           1



 =====
 S C F  ***  ScaSCF  ***
 =====
  

 CYCLE    1
 SCF Error: norm([F,P])=      0.000000000000, max([F,P])=      0.000000000000
 orbitals (Q,E):
 ---------------
 S :1...6            ( 2.00    -7.9998)  ( 2.00    -1.9981)  ( 0.00    -0.8875)  ( 0.00    -0.4889)
                     ( 0.00     1.0492)  ( 0.00    26.5704)
 P :1...3            ( 0.00    -1.9827)  ( 0.00    -0.8871)  ( 0.00    -0.4852)
 D :1...1            ( 0.00    -0.7283)

 CYCLE    2
 SCF Error: norm([F,P])=      2.259037792059, max([F,P])=      1.462421143596
 orbitals (Q,E):
 ---------------
 S :1...3            ( 2.00    -3.9831)  ( 2.00    -0.1197)  ( 0.00     0.0769)
 P :1...1            ( 0.00     0.0759)
 D :1...1            ( 0.00     1.5413)

 CYCLE    3
  SDIIS (wt  0.000): -0.0238  1.0238
 A-DIIS (wt  1.000):  0.0000  1.0000
  DIIS coefficients:  0.0000  1.0000
 SCF Error: norm([F,P])=      0.170431856848, max([F,P])=      0.125225661473
 orbitals (Q,E):
 ---------------
 S :1...3            ( 2.00    -4.6710)  ( 2.00    -0.2983)  ( 0.00     0.0790)
 P :1...1            ( 0.00     0.0447)
 D :1...1            ( 0.00     1.3153)

 CYCLE    4
  SDIIS (wt  0.832): -0.1657  1.1657
 A-DIIS (wt  0.168):  0.0000  1.0000
  DIIS coefficients: -0.1379  1.1379
 SCF Error: norm([F,P])=      0.025745560874, max([F,P])=      0.017620764220
 orbitals (Q,E):
 ---------------
 S :1...3            ( 2.00    -4.7286)  ( 2.00    -0.3087)  ( 0.00     0.0785)
 P :1...1            ( 0.00     0.0391)
 D :1...1            ( 0.00     1.2882)

 CYCLE    5
  SDIIS (wt  1.000):  0.0137 -0.1516  1.1379
  DIIS coefficients:  0.0137 -0.1516  1.1379
 SCF Error: norm([F,P])=      0.001638522862, max([F,P])=      0.000812784609
 orbitals (Q,E):
 ---------------
 S :1...3            ( 2.00    -4.7322)  ( 2.00    -0.3092)  ( 0.00     0.0784)
 P :1...1            ( 0.00     0.0386)
 D :1...1            ( 0.00     1.2863)

 CYCLE    6
  SDIIS (wt  1.000): -0.0011  0.0119 -0.0974  1.0865
  DIIS coefficients: -0.0011  0.0119 -0.0974  1.0865
 SCF Error: norm([F,P])=      0.000037698818, max([F,P])=      0.000026226217
 orbitals (Q,E):
 ---------------
 S :1...3            ( 2.00    -4.7323)  ( 2.00    -0.3092)  ( 0.00     0.0784)
 P :1...1            ( 0.00     0.0386)
 D :1...1            ( 0.00     1.2862)

 CYCLE    7
  SDIIS (wt  1.000):  0.0002 -0.0026  0.0215 -0.2555  1.2364
  DIIS coefficients:  0.0002 -0.0026  0.0215 -0.2555  1.2364
 SCF Error: norm([F,P])=      0.000004266485, max([F,P])=      0.000002497289
 orbitals (Q,E):
 ---------------
 S :1...3            ( 2.00    -4.7323)  ( 2.00    -0.3092)  ( 0.00     0.0784)
 P :1...1            ( 0.00     0.0386)
 D :1...1            ( 0.00     1.2862)

 CYCLE    8
  SDIIS (wt  1.000):  0.0000 -0.0000  0.0002 -0.0002 -0.1966  1.1966
  DIIS coefficients:  0.0000 -0.0000  0.0002 -0.0002 -0.1966  1.1966
 SCF Error: norm([F,P])=      0.000000713596, max([F,P])=      0.000000401508
 orbitals (Q,E):
 ---------------
 S :1...3            ( 2.00    -4.7323)  ( 2.00    -0.3092)  ( 0.00     0.0784)
 P :1...1            ( 0.00     0.0386)
 D :1...1            ( 0.00     1.2862)

 CYCLE    9
  SDIIS (wt  1.000): -0.0000  0.0000 -0.0000  0.0004  0.0068 -0.0511  1.0439
  DIIS coefficients: -0.0000  0.0000 -0.0000  0.0004  0.0068 -0.0511  1.0439
 SCF Error: norm([F,P])=      0.000000009823, max([F,P])=      0.000000006701
 orbitals (Q,E):
 ---------------
 S :1...3            ( 2.00    -4.7323)  ( 2.00    -0.3092)  ( 0.00     0.0784)
 P :1...1            ( 0.00     0.0386)
 D :1...1            ( 0.00     1.2862)

 SCF CONVERGED

 CYCLE   10
1
 ***************************************************************************************************



                                                *******************
                                                *  R E S U L T S  *
                                                *******************
  
  
 Hartree-Fock exchange energy:   -2.66742095278545     
 *** Setting up for NEW gradients in Focky
 *** Using FIT density in Focky

 Orbital Energies, per Irrep and Spin:
 ======================================
                        Occup              E (au)              E (eV)       Diff (eV) with prev. cycle
                        -----      --------------------        ------       --------------------------
 S
               1        2.000     -0.47323068093419E+01      -128.773               2.45E-09
               2        2.000     -0.30922450622446E+00        -8.414               3.09E-09
               3        0.000      0.78424715237563E-01         2.134
               4        0.000      0.64839697123554E+00        17.644
               5        0.000      0.39611281755775E+01       107.788
               6        0.000      0.32007159634150E+02       870.959
 P
               1        0.000      0.38608083338709E-01         1.051
               2        0.000      0.19930463259961E+00         5.423
               3        0.000      0.10925496498195E+01        29.730
 D
               1        0.000      0.12862330561464E+01        35.000
  
 HOMO :        2 S                -0.30922450622446E+00
 LUMO :        1 P                 0.38608083338709E-01
  


 Orbital Energies, all Irreps
 ========================================

 Irrep        no.  (spin)   Occup              E (au)                E (eV)
 ---------------------------------------------------------------------------
 S             1             2.00       -0.47323068093419E+01      -128.7726
 S             2             2.00       -0.30922450622446E+00        -8.4144
 P             1             0.00        0.38608083338709E-01         1.0506
 S             3             0.00        0.78424715237563E-01         2.1340
 P             2             0.00        0.19930463259961E+00         5.4234
 S             4             0.00        0.64839697123554E+00        17.6438
 P             3             0.00        0.10925496498195E+01        29.7298
 D             1             0.00        0.12862330561464E+01        35.0002
 S             5             0.00        0.39611281755775E+01       107.7878
 S             6             0.00        0.32007159634150E+02       870.9591


 All Electron Calculation, thus no Orbital Energies of the Core Orbitals are calculated



 =======================================
 M U L L I K E N   P O P U L A T I O N S
 =======================================
  
 The survey below gives for each atom:
 a) the total charge (Z minus electrons)
 b) the net spin polarization (nr of electrons spin-A minus spin-B)
 c) for each spin the atomic electron valence density (integrated) per L-value.

 Atom              Charge    Spin density          S         P         D         F
 ----              ------    ------------       ------    ------    ------    ------
 1 Be             -0.0000                       4.0000    0.0000    0.0000    0.0000

 Populations of individual BAS functions
 ----------------------------------------
 1 Be           0.1399  1.5707  0.2885 -0.7651  2.7006  0.0653  0.0000  0.0000  0.0000  0.0000
                0.0000  0.0000  0.0000  0.0000  0.0000  0.0000  0.0000  0.0000  0.0000  0.0000
                0.0000

 Gross Charges per Atom (Z minus electrons)
 ==========================================
            -0.0000
 Net Total: -0.00000000



 =======================================================================
 Electrostatic potential at the Nuclei due to electrons and other nuclei
 =======================================================================
  
         Atom                  Potential
         ----                  ---------
     1)   Be                  8.40915028
 
 
 ========================
 No memory problems found
 ========================
 
 Maximum number of active allocate calls:         370
 
 *******************************************************************************

                             A D F   E X I T
 NORMAL TERMINATION



 =================
 Timing Statistics
 =================
  
 Total Used :                     CPU=        1.06      System=        0.06     Elapsed=        2.74

 Calls  Section                     ( Mean, Percentage )
 ---------------------------------------------------------------------------------------------------
     3  ><      ................      0.00    0.44             0.00    0.58             0.00    0.33
     1  INIT    ................      0.06    5.71             0.01   10.49             1.60   58.42
     1  GEOMET  ................      0.05    4.26             0.03   48.72             0.10    3.74
     1  INPUTA  ................      0.01    0.53             0.00    0.45             0.01    0.26
     1  MAINSY  ................      0.01    1.31             0.00    3.40             0.02    0.79
     1  SYMFIT  ................      0.00    0.15             0.00    0.31             0.00    0.09
     1  CORORT  ................      0.00    0.01             0.00    1.80             0.00    0.05
     1  SYMORB  ................      0.00    0.11             0.00    0.04             0.00    0.04
     1  FITINT  ................      0.01    1.24             0.00    0.36             0.02    0.58
     1  CLSMAT  ................      0.00    0.20             0.00    0.00             0.00    0.08
     1  ORTHON  ................      0.01    0.71             0.00    1.78             0.01    0.40
     1  GENPT   ................      0.02    1.92             0.00    0.00             0.02    0.87
     1  PTBAS   ................      0.01    0.53             0.00    1.42             0.01    0.34
    10  FOCKY   ................      0.08   72.22             0.00   21.45             0.08   29.33
    10  FOCKTR  ................      0.00    0.95             0.00    0.00             0.00    0.37
    10  SDIIS   ................      0.00    3.22             0.00    2.72             0.00    1.52
     1  COREPS  ................      0.04    3.63             0.00    1.70             0.04    1.52
     1  POPAN   ................      0.01    0.73             0.00    1.66             0.01    0.35
     1  DEBYE   ................      0.00    0.24             0.00    0.00             0.00    0.10
     1  EXIT PROCEDURE .........      0.02    1.91             0.00    3.11             0.02    0.83


 Currently Open Files (EXIT00)
 ====================

 Unit    Access Format  Status   Type       Ident (file)
 -------------------------------------------------------
   3      SEQ    FORM   TRANSP  NORMAL      LOGFILE
                                          ( logfile )


 Buffered I/O statistics
 =======================
 Memory available:                     67108864
 Number of records fitting in memory:     16131
 Input :   0.1% of                        24983  *4k bytes
 Output:  13.7% of                         1313  *4k bytes
 Records from serial files evicted:           0
                    others evicted:           0
 Hash table lookups:      51329 with          0 conflicts (  0.00%)

 ***************************************************************************************************
 (LOGFILE)
 <Mar23-2019> <10:00:02>  ADF 2018  RunTime: Mar23-2019 10:00:02  Nodes: 1  Procs: 1
 <Mar23-2019> <10:00:02>   6S 3P 1D 0F even-tempered basis for Be
 <Mar23-2019> <10:00:02>  RunType   : CREATE
 <Mar23-2019> <10:00:02>  Net Charge: 0 (Nuclei minus Electrons)
 <Mar23-2019> <10:00:02>  Symmetry  : ATOM
  Coordinates
    Atom         X           Y           Z   (Angstrom)
    1.Be        0.000000    0.000000    0.000000
 <Mar23-2019> <10:00:02>  >>>> CORORT
 <Mar23-2019> <10:00:02>  >>>> FITINT
 <Mar23-2019> <10:00:02>  >>>> CLSMAT
 <Mar23-2019> <10:00:02>  >>>> ORTHON
 <Mar23-2019> <10:00:02>  >>>> GENPT
 <Mar23-2019> <10:00:02>  Block Length=  68
 <Mar23-2019> <10:00:02>  >>>> PTBAS
 <Mar23-2019> <10:00:02>  >>>> CYCLE
 <Mar23-2019> <10:00:02>  CalcFitR12Fit
 <Mar23-2019> <10:00:02>  CalcFitCoeff
 <Mar23-2019> <10:00:02>              |Error|         MaxErr       Wt(A-DIIS)
 <Mar23-2019> <10:00:02>      1      0.00000000      0.00000000
 <Mar23-2019> <10:00:02>      2      2.25903779      1.46242114
 <Mar23-2019> <10:00:02>      3      0.17043186      0.12522566    100.0
 <Mar23-2019> <10:00:03>      4      0.02574556      0.01762076     16.8
 <Mar23-2019> <10:00:03>      5      0.00163852      0.00081278      0.0
 <Mar23-2019> <10:00:03>      6      0.00003770      0.00002623      0.0
 <Mar23-2019> <10:00:03>      7      0.00000427      0.00000250      0.0
 <Mar23-2019> <10:00:03>      8      0.00000071      0.00000040      0.0
 <Mar23-2019> <10:00:03>      9      0.00000001      0.00000001      0.0
 <Mar23-2019> <10:00:03>  SCF converged
 <Mar23-2019> <10:00:03>     10      0.00000000      0.00000000      0.0
 <Mar23-2019> <10:00:03>  >>>> POPAN
 <Mar23-2019> <10:00:03>  >>>> DEBYE
 <Mar23-2019> <10:00:03>  NORMAL TERMINATION
 <Mar23-2019> <10:00:03>  END


 Parallel Execution: Process Information
 ==============================================================================
 Rank   Node Name                              NodeID   MyNodeRank  NodeMaster
    0   vladimir-kubuntu                          0          0          0
    1   vladimir-kubuntu                          0          1         -1
    2   vladimir-kubuntu                          0          2         -1
    3   vladimir-kubuntu                          0          3         -1
 ==============================================================================


May use up to 7569MB of RAM as shared memory on node 0
 
Title Be

ATOMS
 Be        0.000000000000      0.000000000000      0.000000000000
END

CHARGE 0 0

XC
  HartreeFock
END

NUMERICALQUALITY excellent

EPRINT
  SFO NOEIG NOOVL NOORBPOP
  SCF NOPOP
END

NOPRINT BAS FUNCTIONS

TOTALENERGY
NOTOTEN

Fragments
Be t21.Be
End

 *******************************************************************************
 *                                                                             *
 *  -------------------------------------                                      *
 *   Amsterdam Density Functional  (ADF)         2018                          *
 *  -------------------------------------                                      *
 *                                               r70630 2018-11-24             *
 *                                                                             *
 *                                                                             *
 *                              =================                              *
 *                              |               |                              *
 *                              |     A D F     |                              *
 *                              |               |                              *
 *                              =================                              *
 *                                                                             *
 *                                                                             *
 *   Online information and documentation:  https://www.scm.com/support/       *
 *   E-mail:  support@scm.com   info@scm.com                                   *
 *                                                                             *
 *   Scientific publications using ADF results must be properly referenced     *
 *   See the User Manuals (or the web site) for recommended citations          *
 *   The terms and conditions of the End User License Agreement apply to       *
 *   the use of ADF, https://www.scm.com/license-terms/                        *
 *                                                                             *
 **********************  x86_64_linux_intel / intelmpi  ************************
 
 Licensed to: Mr. Vladimir Konjkov / Florida Institute of Technology / Melbourne / Florida / USA
 SCM User ID: u21173
  
 ADF 2018  RunTime: Mar23-2019 10:00:03  Nodes: 1  Procs: 4

 Temporary files are created in /tmp/kid_0.1175486256


Communication costs MPI_COMM_WORLD:      0.404 usec per message,   0.0042 usec per 8-byte item
Communication costs for intra-node:      0.406 usec per message,   0.0044 usec per 8-byte item

 Be



 ===========================
 A T T A C H E D   F I L E S
 ===========================
  



 ===============================
 M O D E L   P A R A M E T E R S
 ===============================
  
 DENSITY FUNCTIONAL POTENTIAL (scf)
    Hybrid:                            HARTREEFOCK                             == Not Default ==

 SPIN  (restricted / unrestr.)
    Molecule:                          Restricted                               
    Fragments:                         Restricted                               

 OTHER ASPECTS
    Relativistic Corrections:          ---                                      

    Nuclear Charge Density Model:      Point Charge Nuclei                      
    Core Treatment:                    Frozen Orbital(s)                        

    Hyperfine or Zeeman Interaction:   ---                                      


 Fragment File(s)
 ----------------
 Be:
         file : t21.Be
         jobid: ADF 2018  RunTime: Mar23-2019 10:00:02  Nodes: 1  Procs: 1
         title:  6S 3P 1D 0F even-tempered basis for Be



                                        ************************************
                                        *  R U N   T Y P E : SINGLE POINT  *
                                        ************************************
  



 ===============
 G E O M E T R Y  ***  Single Atom  ***
 ===============
  

 ATOMS
 =====                            X Y Z                    CHARGE
                                (Angstrom)             Nucl     +Core       At.Mass
                       --------------------------    ----------------       -------
    1  Be              0.0000    0.0000    0.0000      4.00      4.00        9.0122


 FRAGMENTS
 =========                                     Atoms in this Fragment     Cart. coord.s (Angstrom)
                                               -------------------------------------------------------
    1  Be                                                1  Be           0.0000    0.0000    0.0000



 =====================================
 S Y M M E T R Y ,   E L E C T R O N S
 =====================================
  
 Symmetry: ATOM

 Irreducible Representations, including subspecies
 -------------------------------------------------
 S
 P:x  P:y  P:z
 D:z2  D:x2-y2  D:xy  D:xz  D:yz
 F:z3  F:z  F:xyz  F:z2x  F:z2y  F:x  F:y


 Configuration of Valence Electrons
 ==================================
 ( determined in the SCF procedure )

 Total:   4

 Net Charge: 0 (Nuclei minus Electrons)

 Aufbau principle for MO occupations will be applied through SCF cycle no.     150
 Thereafter, the program will assign electrons to MOs that are spatially
 similar to the occupied MOs in a "reference" cycle ("KeepOrbitals").
 The reference cycle is always the PREVIOUS cycle: it will evolve with
 the SCF procedure.



 =======
 S F O s  ***  (Symmetrized Fragment Orbitals)  ***
 =======
  
 SFOs are linear combinations of (valence) Fragment Orbitals (FOs), such that the SFOs transform as the
 irreducible representations of the (molecular) symmetry group. Each SFO is therefore characterized by
 an irrep of the molecule and by a few (or only one) generating FOs.
 The SFOs constitute a symmetry-adapted basis for the Fock matrix. The MO eigenvector coefficients in
 this basis provide a direct interpretation of the MOs in terms of Frontier Orbital Theory.

 The SFOs are combined with auxiliary Core Functions (CFs) to ensure orthogonalization on the (frozen)
 Core Orbitals (COs). The Core-orthogonalized SFOs (CSFOs) constitute the true Fock basis.

 The FOs, and hence also the (C)SFOs are combinations of the elementary basis functions (BAS). The basis
 functions that participate in the description of the SFOs depend on the irrep. The indices of the
 involved functions are printed below for each irrep.
 (The complete list of primitive basis functions is printed in another section)

 Total nr. of (C)SFOs (summation over all irreps) :    20

 NOTE: a (C)SFO that is defined as a combination of more than one FO is usually NOT normalized.



                                       === S ===
 Nr. of SFOs :    6
 Cartesian basis functions that participate in this irrep (total number =     6) :
      1     2     3     4     5     6

    SFO  (index         Fragment          Generating    Expansion in Fragment Orbitals
  indx  incl.CFs)   Occup   Orb.Energy   FragmentType  Coeff.   Orbital     on Fragment
 --------------------------------------------------------------------------------------
     1       1      2.000      -4.732 au  Be            1.00      1 S               1
                        (    -128.773 eV)
     2       2      2.000      -0.309 au  Be            1.00      2 S               1
                        (      -8.414 eV)
     3       3       --         0.078 au  Be            1.00      3 S               1
                        (       2.134 eV)
     4       4       --         0.648 au  Be            1.00      4 S               1
                        (      17.644 eV)
     5       5       --         3.961 au  Be            1.00      5 S               1
                        (     107.788 eV)
     6       6       --        32.007 au  Be            1.00      6 S               1
                        (     870.959 eV)



                                       === P:x ===
 Nr. of SFOs :    3
 Cartesian basis functions that participate in this irrep (total number =     3) :
      7    10    13

    SFO  (index         Fragment          Generating    Expansion in Fragment Orbitals
  indx  incl.CFs)   Occup   Orb.Energy   FragmentType  Coeff.   Orbital     on Fragment
 --------------------------------------------------------------------------------------
     1       1       --         0.039 au  Be            1.00      1 P:x             1
                        (       1.051 eV)
     2       2       --         0.199 au  Be            1.00      2 P:x             1
                        (       5.423 eV)
     3       3       --         1.093 au  Be            1.00      3 P:x             1
                        (      29.730 eV)



                                       === P:y ===
 Nr. of SFOs :    3
 Cartesian basis functions that participate in this irrep (total number =     3) :
      8    11    14

    SFO  (index         Fragment          Generating    Expansion in Fragment Orbitals
  indx  incl.CFs)   Occup   Orb.Energy   FragmentType  Coeff.   Orbital     on Fragment
 --------------------------------------------------------------------------------------
     1       1       --         0.039 au  Be            1.00      1 P:y             1
                        (       1.051 eV)
     2       2       --         0.199 au  Be            1.00      2 P:y             1
                        (       5.423 eV)
     3       3       --         1.093 au  Be            1.00      3 P:y             1
                        (      29.730 eV)



                                       === P:z ===
 Nr. of SFOs :    3
 Cartesian basis functions that participate in this irrep (total number =     3) :
      9    12    15

    SFO  (index         Fragment          Generating    Expansion in Fragment Orbitals
  indx  incl.CFs)   Occup   Orb.Energy   FragmentType  Coeff.   Orbital     on Fragment
 --------------------------------------------------------------------------------------
     1       1       --         0.039 au  Be            1.00      1 P:z             1
                        (       1.051 eV)
     2       2       --         0.199 au  Be            1.00      2 P:z             1
                        (       5.423 eV)
     3       3       --         1.093 au  Be            1.00      3 P:z             1
                        (      29.730 eV)



                                       === D:z2 ===
 Nr. of SFOs :    1
 Cartesian basis functions that participate in this irrep (total number =     3) :
     16    19    21

    SFO  (index         Fragment          Generating    Expansion in Fragment Orbitals
  indx  incl.CFs)   Occup   Orb.Energy   FragmentType  Coeff.   Orbital     on Fragment
 --------------------------------------------------------------------------------------
     1       1       --         1.286 au  Be            1.00      1 D:z2            1
                        (      35.000 eV)



                                       === D:x2-y2 ===
 Nr. of SFOs :    1
 Cartesian basis functions that participate in this irrep (total number =     2) :
     16    19

    SFO  (index         Fragment          Generating    Expansion in Fragment Orbitals
  indx  incl.CFs)   Occup   Orb.Energy   FragmentType  Coeff.   Orbital     on Fragment
 --------------------------------------------------------------------------------------
     1       1       --         1.286 au  Be            1.00      1 D:x2-y2         1
                        (      35.000 eV)



                                       === D:xy ===
 Nr. of SFOs :    1
 Cartesian basis functions that participate in this irrep (total number =     1) :
     17

    SFO  (index         Fragment          Generating    Expansion in Fragment Orbitals
  indx  incl.CFs)   Occup   Orb.Energy   FragmentType  Coeff.   Orbital     on Fragment
 --------------------------------------------------------------------------------------
     1       1       --         1.286 au  Be            1.00      1 D:xy            1
                        (      35.000 eV)



                                       === D:xz ===
 Nr. of SFOs :    1
 Cartesian basis functions that participate in this irrep (total number =     1) :
     18

    SFO  (index         Fragment          Generating    Expansion in Fragment Orbitals
  indx  incl.CFs)   Occup   Orb.Energy   FragmentType  Coeff.   Orbital     on Fragment
 --------------------------------------------------------------------------------------
     1       1       --         1.286 au  Be            1.00      1 D:xz            1
                        (      35.000 eV)



                                       === D:yz ===
 Nr. of SFOs :    1
 Cartesian basis functions that participate in this irrep (total number =     1) :
     20

    SFO  (index         Fragment          Generating    Expansion in Fragment Orbitals
  indx  incl.CFs)   Occup   Orb.Energy   FragmentType  Coeff.   Orbital     on Fragment
 --------------------------------------------------------------------------------------
     1       1       --         1.286 au  Be            1.00      1 D:yz            1
                        (      35.000 eV)

 Total number of charge fitting functions (nprimf)       242
 Total number of Cartesian basis functions (naos)         21
 Total number of Cartesian core functions  (ncos)          0

1
 ***************************************************************************************************



                                              ***********************
                                              *  T E C H N I C A L  *
                                              ***********************
  



 =============================================================
 P A R A L L E L I Z A T I O N  and  V E C T O R I Z A T I O N
 =============================================================
  
 Nr of parallel processes:                                4
 Maximum vector length in NumInt loops:                 128

 IO buffersize (Mb):                                     64.000000



 =====================
 S C F   U P D A T E S
 =====================
  
 Max. nr. of cycles:                               300
 Convergence criterion:                              0.0000010000
   secondary criterion:                              0.0010000000

 Mix parameter (when DIIS does not apply):           0.2000000000
 Mixed ADIIS+DIIS will be used
    Max number of expansion vectors:                10
    Pure ADIIS when Max([F,P]) is above              0.1000000000
    Pure DIIS when Max([F,P]) is below               0.0010000000
 Automatic ElectronSmearing (in case of problematic SCF convergence) disabled



 =================
 P R E C I S I O N  ***  (General: NumInt, NeglectFunctionTails, ...)  ***
 =================
  

 NumInt:           Target precision:                10.0000000000
 -------           Initial precision:               10.0000000000
                   Min. precision (optimization):   10.0000000000

 Neglect Functions:          Basis functions:        0.1000000000E-11
 ------------------          Fit functions:          0.1000000000E-11



 ===========================
 L I N E A R   S C A L I N G
 ===========================
  

 Cut-off radii density fit:                        0.1000000000E-13
 Overlap cut-off criterion AO matrix elements:     0.1000000000E-11
 Cut-offs for Coulomb potential and fitted density:0.1000000000E-13
 Cut-off criterion for Coulomb multipole terms:    0.1000000000E-13
 Progressive Convergence parameter:                 0.000000000    
1
 ***************************************************************************************************



                                            ***************************
                                            *  C O M P U T A T I O N  *
                                            ***************************
  

 Number of elements of the density matrix on this node (used, total):       231       231



 ===========================================
 Numerical Integration : Fuzzy Cells (Becke)
 ===========================================
  
 Becke grid quality: EXCELLENT      
  
 Lebedev angular grid order:             min:  17 max:  47
 Nr. of radial points:                   min: 107 max: 107

 Total nr. of points:        107
 Nr. of blocks:                1
 Block length:               107
 Nr. of dummy points:          0


 Test of Precision of the Numerical Integration Grid
 ===================================================

 Integral of the Total Core Density:                   0.00000000000000



 ========================
 Density Fitting (zlmFit)
 ========================
  
 ZlmFit Fit Quality: EXCELLENT      
  
 Max L-expansion:                        min:  14 max:  14
 Nr. of radial interpolation points:     min: 336 max: 336



 ======================
 RI Hartree-Fock Scheme
 ======================
  
 Fit Set Quality     : EXCELLENT
 Integration Quality : EXCELLENT
 Threshold Quality   : EXCELLENT
 Response Quality    : DEFAULT
 Is Range Separated  :  F
 
 RIHartreeFock Dependency: number of modified vectors:           1



 =====
 S C F  ***  ScaSCF  ***
 =====
  
 Initial density matrix is calculated as sum of fragments

 CYCLE    1
 Orbital Data from active fragment used
 SCF Error: norm([F,P])=      0.000023462482, max([F,P])=      0.000020399297
 orbitals (Q,E):
 ---------------
 S :1...6            ( 2.00    -4.7323)  ( 2.00    -0.3092)  ( 0.00     0.0784)  ( 0.00     0.6484)
                     ( 0.00     3.9611)  ( 0.00    32.0059)
 P :1...3            ( 0.00     0.0386)  ( 0.00     0.1993)  ( 0.00     1.0925)
 D :1...1            ( 0.00     1.2862)

 CYCLE    2
 SCF Error: norm([F,P])=      0.000001094579, max([F,P])=      0.000000695175
 orbitals (Q,E):
 ---------------
 S :1...3            ( 2.00    -4.7323)  ( 2.00    -0.3092)  ( 0.00     0.0784)
 P :1...1            ( 0.00     0.0386)
 D :1...1            ( 0.00     1.2862)

 SCF CONVERGED

 CYCLE    3
1
 ***************************************************************************************************



                                                *******************
                                                *  R E S U L T S  *
                                                *******************
  
  
 Hartree-Fock exchange energy:   -2.66742172596606     
 *** Setting up for NEW gradients in Focky
 *** Using FIT density in Focky

 Orbital Energies, per Irrep and Spin:
 ======================================
                        Occup              E (au)              E (eV)       Diff (eV) with prev. cycle
                        -----      --------------------        ------       --------------------------
 S
               1        2.000     -0.47323074304938E+01      -128.773              -2.89E-06
               2        2.000     -0.30922378360058E+00        -8.414               5.81E-08
               3        0.000      0.78419522158491E-01         2.134
               4        0.000      0.64838130889393E+00        17.643
               5        0.000      0.39611159846770E+01       107.787
               6        0.000      0.32005896367823E+02       870.925
 P
               1        0.000      0.38605764654398E-01         1.051
               2        0.000      0.19928017567233E+00         5.423
               3        0.000      0.10925043812179E+01        29.729
 D
               1        0.000      0.12862183465332E+01        35.000
  
 HOMO :        2 S                -0.30922378360058E+00
 LUMO :        1 P                 0.38605764654398E-01
  


 Orbital Energies, all Irreps
 ========================================

 Irrep        no.  (spin)   Occup              E (au)                E (eV)
 ---------------------------------------------------------------------------
 S             1             2.00       -0.47323074304938E+01      -128.7726
 S             2             2.00       -0.30922378360058E+00        -8.4144
 P             1             0.00        0.38605764654398E-01         1.0505
 S             3             0.00        0.78419522158491E-01         2.1339
 P             2             0.00        0.19928017567233E+00         5.4227
 S             4             0.00        0.64838130889393E+00        17.6434
 P             3             0.00        0.10925043812179E+01        29.7286
 D             1             0.00        0.12862183465332E+01        34.9998
 S             5             0.00        0.39611159846770E+01       107.7875
 S             6             0.00        0.32005896367823E+02       870.9248


 All Electron Calculation, thus no Orbital Energies of the Core Orbitals are calculated



 =======================
 T O T A L   E N E R G Y  ***  (contributions)  ***
 =======================
  

*** Note ***

The requirements to the integration accuracy are somewhat higher than for bond energies.
One can expect an accuracy of roughly (accint-2) decimal places, where accint is the
general integration accuracy parameter.
The Coulomb energy is the sum of the Hartree energy (electron-electron Coulomb interaction)
and the nuclear-electron attraction energy. It includes the correction for the first-order
fit error in the Hartree energy.
The potential energy is the sum of the nuclear repulsion energy, the Coulomb energy,
and the exchange-correlation energy.

Kinetic energy           =           14.573848625945

Nuclear repulsion energy =            0.000000000000
Coulomb energy           =          -26.479266664935
XC energy                =           -2.667421725966
Total potential energy   =          -29.146688390901

----------------------------------------------------
Total energy             =          -14.572839764956
Virial theorem           =            1.999930775939
----------------------------------------------------

 Gross Charges per Atom (Z minus electrons)
 ==========================================
            -0.0000
 Net Total: -0.00000000



 =================================================================
 M U L T I P O L E   D E R I V E D   C H A R G E   A N A L Y S I S
 =================================================================

 This charge analysis uses the atomic multipoles (obtained from the fitted density) up to some level X,
 and reconstructs these multipoles exactly (up to level X) by distributing charges over all atoms.
 This is achieved by using Lagrange multipliers and a weight function to keep the multipoles local.

 Dummy atoms can be included (by setting INCDUM in MDC-block to 1) to obtain a fractional charge.
 This is generally useful and necessary only for small symmetrical molecules, when there are not
 enough degrees of freedom to reconstruct the multipoles.

 Since the atomic multipoles are reconstructed up to level X,
 the molecular multipoles are represented also up to level X.
 The recommended level is to reconstruct up to quadrupole : -> MDC-q charges.

 See: M. Swart, P.Th. van Duijnen, J.G. Snijders, J.Comput.Chem., (2001), p. 79-88.

 ------------------------------------------------------------- 
 Atomic electronic multipole moments from SCF equations (a.u.)
 ------------------------------------------------------------- 

   atom        charge        dip-x     dip-y     dip-z      quad-xx   quad-xy   quad-xz   quad-yy   quad-yz   quad-zz
 --------------------------------------------------------------------------------------------------------------------
    1 Be     0.000000     0.000000  0.000000  0.000000    -0.000000  0.000000  0.000000  0.000000 -0.000000  0.000000

 --------------------------------------- 
 Multipole derived atomic charges (a.u.)
 --------------------------------------- 

 The MDC-m charges are just the Monopole terms in the multipole expansion, while for the MDC-d charges
 also the Dipoles are reconstructed. The usually preferred charges are the MDC-q charges.
 These reconstruct the Monopoles, Dipoles and Quadrupoles (both atomic AND molecular).

        Atom    Level:     MDC-m        MDC-d        MDC-q
 ---------------------------------------------------------
     1     Be           0.000000     0.000000     0.000000

 ------------------------------------------------ 
 Average absolute deviations in atomic multipoles
 ------------------------------------------------ 

 Stated here are the average differences between the atomic multipoles
 and the reconstructed atomic multipoles (from the distributed charges).
 If these values are not zero, this means there are not enough degrees of freedom,
 to be able to reconstruct the atomic multipoles. (This usually happens only
 for small and/or highly symmetric molecules). If this is the case, one could add
 dummy atoms as extra point charges (and setting INCDUM in MDC-block to 1).

 Level:                                 MDC-d        MDC-q
 ---------------------------------------------------------
 Charge   (a.u.)                       0.0000       0.0000
 Dipole   (Debye)                      0.0000       0.0000
 Quad.    (a.u.)                       0.0000       0.0000

 --------------------------------------- 
 Represented molecular multipole moments
 --------------------------------------- 

 Given here are the Molecular multipole moments from the atomic charges, and from the Fit Density.
 Note that the atomic charges represent the latter, NOT the ones from the Exact density.

            Q (a.u.)             Dipole moment (Debye)                                          Quadrupole moment (a.u.)
                                 x         y         z              xx        xy        xz        yy        yz        zz
------------------------------------------------------------------------------------------------------------------------
MDC-m         0.0000        0.0000    0.0000    0.0000          0.0000    0.0000    0.0000    0.0000    0.0000    0.0000
MDC-d         0.0000        0.0000    0.0000    0.0000          0.0000    0.0000    0.0000    0.0000    0.0000    0.0000
MDC-q         0.0000        0.0000    0.0000    0.0000          0.0000    0.0000    0.0000    0.0000    0.0000    0.0000
 
Fit.Dens.     0.0000        0.0000    0.0000    0.0000         -0.0000    0.0000    0.0000    0.0000   -0.0000    0.0000



 =============
 Dipole Moment  ***  (Debye)  ***
 =============
  
 Vector   :         0.00000000      0.00000000      0.00000000
 Magnitude:         0.00000000

 This molecular dipole moment is calculated with analytic integration



 =========================================
 Quadrupole Moment (Buckingham convention)  ***  (a.u.)  ***
 =========================================
  
      quad-xx        quad-xy        quad-xz        quad-yy        quad-yz        quad-zz
      0.00000000     0.00000000     0.00000000     0.00000000     0.00000000     0.00000000

 This molecular quadrupole moment is calculated with analytic integration



 =======================================================================
 Electrostatic potential at the Nuclei due to electrons and other nuclei
 =======================================================================
  
         Atom                  Potential
         ----                  ---------
     1)   Be                  8.40915297
 
 
 ========================
 No memory problems found
 ========================
 
 Maximum number of active allocate calls:         513
 
 *******************************************************************************

                             A D F   E X I T
 NORMAL TERMINATION



 =================
 Timing Statistics
 =================
  
 Total Used :                     CPU=        6.04      System=        0.18     Elapsed=        6.62

 Calls  Section                     ( Mean, Percentage )
 ---------------------------------------------------------------------------------------------------
     3  ><      ................      0.00    0.05             0.00    1.11             0.00    0.09
     1  INIT    ................      0.44    7.21             0.00    2.25             0.81   12.22
     1  GEOMET  ................      0.04    0.70             0.04   21.21             0.08    1.26
     1  FRAGM   ................      0.01    0.21             0.00    2.59             0.02    0.32
     1  INPUTA  ................      0.00    0.05             0.00    0.00             0.00    0.05
     1  ATDEN   ................      0.00    0.04             0.00    0.53             0.00    0.05
     1  MAINSY  ................      0.02    0.27             0.00    2.17             0.02    0.33
     1  SYMFIT  ................      0.00    0.03             0.00    0.01             0.00    0.03
     1  CORORT  ................      0.00    0.03             0.00    0.04             0.00    0.02
     1  SYMORB  ................      0.00    0.02             0.00    0.54             0.00    0.04
     1  FITINT  ................      0.01    0.20             0.00    0.02             0.01    0.19
     1  CLSMAT  ................      0.00    0.05             0.00    0.00             0.00    0.04
     1  ORTHON  ................      0.01    0.21             0.00    0.00             0.01    0.20
     1  GENPT   ................      0.02    0.37             0.00    0.49             0.02    0.36
     1  PTBAS   ................      0.01    0.18             0.00    0.02             0.01    0.16
     3  FOCKY   ................      1.44   71.49             0.03   58.44             1.48   67.06
     3  FOCKTR  ................      0.00    0.13             0.00    1.69             0.00    0.16
     3  SDIIS   ................      0.00    0.24             0.00    0.00             0.00    0.22
     1  COREPS  ................      1.08   17.82             0.01    4.48             1.09   16.40
     1  POPAN   ................      0.02    0.32             0.00    2.22             0.02    0.36
     1  DEBYE   ................      0.00    0.06             0.00    0.00             0.00    0.06
     1  EXIT PROCEDURE .........      0.02    0.33             0.00    2.21             0.02    0.37


 Currently Open Files (EXIT00)
 ====================

 Unit    Access Format  Status   Type       Ident (file)
 -------------------------------------------------------
   3      SEQ    FORM   TRANSP  NORMAL      LOGFILE
                                          ( logfile )


 Buffered I/O statistics
 =======================
 Memory available:                     67108864
 Number of records fitting in memory:     16131
 Input :   0.2% of                        31465  *4k bytes
 Output:   8.0% of                         4466  *4k bytes
 Records from serial files evicted:           0
                    others evicted:           0
 Hash table lookups:      71793 with          0 conflicts (  0.00%)

 ***************************************************************************************************
 (LOGFILE)
 <Mar23-2019> <10:00:02>  ADF 2018  RunTime: Mar23-2019 10:00:02  Nodes: 1  Procs: 1
 <Mar23-2019> <10:00:02>   6S 3P 1D 0F even-tempered basis for Be
 <Mar23-2019> <10:00:02>  RunType   : CREATE
 <Mar23-2019> <10:00:02>  Net Charge: 0 (Nuclei minus Electrons)
 <Mar23-2019> <10:00:02>  Symmetry  : ATOM
  Coordinates
    Atom         X           Y           Z   (Angstrom)
    1.Be        0.000000    0.000000    0.000000
 <Mar23-2019> <10:00:02>  >>>> CORORT
 <Mar23-2019> <10:00:02>  >>>> FITINT
 <Mar23-2019> <10:00:02>  >>>> CLSMAT
 <Mar23-2019> <10:00:02>  >>>> ORTHON
 <Mar23-2019> <10:00:02>  >>>> GENPT
 <Mar23-2019> <10:00:02>  Block Length=  68
 <Mar23-2019> <10:00:02>  >>>> PTBAS
 <Mar23-2019> <10:00:02>  >>>> CYCLE
 <Mar23-2019> <10:00:02>  CalcFitR12Fit
 <Mar23-2019> <10:00:02>  CalcFitCoeff
 <Mar23-2019> <10:00:02>              |Error|         MaxErr       Wt(A-DIIS)
 <Mar23-2019> <10:00:02>      1      0.00000000      0.00000000
 <Mar23-2019> <10:00:02>      2      2.25903779      1.46242114
 <Mar23-2019> <10:00:02>      3      0.17043186      0.12522566    100.0
 <Mar23-2019> <10:00:03>      4      0.02574556      0.01762076     16.8
 <Mar23-2019> <10:00:03>      5      0.00163852      0.00081278      0.0
 <Mar23-2019> <10:00:03>      6      0.00003770      0.00002623      0.0
 <Mar23-2019> <10:00:03>      7      0.00000427      0.00000250      0.0
 <Mar23-2019> <10:00:03>      8      0.00000071      0.00000040      0.0
 <Mar23-2019> <10:00:03>      9      0.00000001      0.00000001      0.0
 <Mar23-2019> <10:00:03>  SCF converged
 <Mar23-2019> <10:00:03>     10      0.00000000      0.00000000      0.0
 <Mar23-2019> <10:00:03>  >>>> POPAN
 <Mar23-2019> <10:00:03>  >>>> DEBYE
 <Mar23-2019> <10:00:03>  NORMAL TERMINATION
 <Mar23-2019> <10:00:03>  END
 <Mar23-2019> <10:00:03>  ADF 2018  RunTime: Mar23-2019 10:00:03  Nodes: 1  Procs: 4
 <Mar23-2019> <10:00:04>  Be
 <Mar23-2019> <10:00:04>  RunType   : SINGLE POINT
 <Mar23-2019> <10:00:04>  Net Charge: 0 (Nuclei minus Electrons)
 <Mar23-2019> <10:00:04>  Symmetry  : ATOM
 <Mar23-2019> <10:00:04>  >>>> FRAGM
  Coordinates
    Atom         X           Y           Z   (Angstrom)
    1.Be        0.000000    0.000000    0.000000
 <Mar23-2019> <10:00:04>  >>>> CORORT
 <Mar23-2019> <10:00:04>  >>>> FITINT
 <Mar23-2019> <10:00:04>  >>>> CLSMAT
 <Mar23-2019> <10:00:04>  >>>> ORTHON
 <Mar23-2019> <10:00:04>  >>>> GENPT
 <Mar23-2019> <10:00:04>  Block Length= 107
 <Mar23-2019> <10:00:04>  >>>> PTBAS
 <Mar23-2019> <10:00:04>  >>>> CYCLE
 <Mar23-2019> <10:00:05>  CalcFitR12Fit
 <Mar23-2019> <10:00:05>  CalcFitCoeff
 <Mar23-2019> <10:00:06>  Orbital Data from active fragment used
 <Mar23-2019> <10:00:06>              |Error|         MaxErr       Wt(A-DIIS)
 <Mar23-2019> <10:00:06>      1      0.00002346      0.00002040
 <Mar23-2019> <10:00:07>      2      0.00000109      0.00000070
 <Mar23-2019> <10:00:09>  SCF converged
 <Mar23-2019> <10:00:09>      3      0.00000018      0.00000014    100.0
 <Mar23-2019> <10:00:10>   Total energy        -14.57283976 a.u.
 <Mar23-2019> <10:00:10>  >>>> POPAN
 <Mar23-2019> <10:00:10>  >>>> DEBYE
 <Mar23-2019> <10:00:10>  NORMAL TERMINATION
 <Mar23-2019> <10:00:10>  END
