 
Create Be   file=QZ4P-Be
XC
  HartreeFock
End
  HartreeFock
RIHartreeFock
  UseMe True
  Quality Excellent
  DependencyThreshold 1.0E-8
End

 *******************************************************************************
 *                                                                             *
 *  -------------------------------------                                      *
 *   Amsterdam Density Functional  (ADF)         2018                          *
 *  -------------------------------------                                      *
 *                                               r70630 2018-11-24             *
 *                                                                             *
 *                                                                             *
 *                              =================                              *
 *                              |               |                              *
 *                              |     A D F     |                              *
 *                              |               |                              *
 *                              =================                              *
 *                                                                             *
 *                                                                             *
 *   Online information and documentation:  https://www.scm.com/support/       *
 *   E-mail:  support@scm.com   info@scm.com                                   *
 *                                                                             *
 *   Scientific publications using ADF results must be properly referenced     *
 *   See the User Manuals (or the web site) for recommended citations          *
 *   The terms and conditions of the End User License Agreement apply to       *
 *   the use of ADF, https://www.scm.com/license-terms/                        *
 *                                                                             *
 **********************  x86_64_linux_intel / intelmpi  ************************
 
 Licensed to: Mr. Vladimir Konjkov / Florida Institute of Technology / Melbourne / Florida / USA
 SCM User ID: u21173
  
 ADF 2018  RunTime: Mar23-2019 10:00:01  Nodes: 1  Procs: 1

 Temporary files are created in /tmp/kid_0.820986210

 Beryllium (QZ, all electron, 7S 3P 2D 2F)



 ===========================
 A T T A C H E D   F I L E S
 ===========================
  
 CREATE - Data File:    QZ4P-Be
                        Beryllium (QZ, all electron, 7S 3P 2D 2F)



 ===============================
 M O D E L   P A R A M E T E R S
 ===============================
  
 DENSITY FUNCTIONAL POTENTIAL (scf)
    Hybrid:                            HARTREEFOCK                             == Not Default ==

 SPIN  (restricted / unrestr.)
    Molecule:                          Restricted                               

 OTHER ASPECTS
    Relativistic Corrections:          ---                                      

    Nuclear Charge Density Model:      Point Charge Nuclei                      
    Core Treatment:                    Frozen Orbital(s)                        

    Hyperfine or Zeeman Interaction:   ---                                      



 =====================================
 S Y M M E T R Y ,   E L E C T R O N S
 =====================================
  
 Symmetry: ATOM

 Irreducible Representations, including subspecies
 -------------------------------------------------
 S
 P:x  P:y  P:z
 D:z2  D:x2-y2  D:xy  D:xz  D:yz
 F:z3  F:z  F:xyz  F:z2x  F:z2y  F:x  F:y


 Configuration of Valence Electrons
 ==================================

          Occupation Numbers
          -------------------------------------------------
 S        2*2
 P        0
 D        0
 F        0
          -------------------------------------------------

 Total:   4

 Net Charge: 0 (Nuclei minus Electrons)

 Preset values for MO occupations will be applied through SCF cycle no. 1000000
 Thereafter, the program will assign electrons to MOs that are spatially
 similar to the occupied MOs in a "reference" cycle ("KeepOrbitals").
 The reference cycle is always the PREVIOUS cycle: it will evolve with
 the SCF procedure.



 ================================
 (Slater-type)  F U N C T I O N S  ***  (Basis and Fit)  ***
 ================================
  

 Atom Type    1  (Be)
 ==============

 Valence Basis Sets:  14
 -----------------------
   1 S    7.250000
   1 S    4.200000
   1 S    3.000000
   2 S    3.700000
   2 S    1.350000
   2 S    0.950000
   2 S    0.710000
   2 P    3.000000
   2 P    1.500000
   2 P    0.750000
   3 D    2.400000
   3 D    1.200000
   4 F    4.000000
   4 F    2.000000

 Charge Fitting Sets (for the computation of the Coulomb Potential):  30
 -----------------------------------------------------------------------
   1 S   14.500000
   1 S   11.040000
   1 S    8.400000
   1 S    5.670000
   2 S    7.080000
   2 S    5.220000
   2 S    3.850000
   2 S    2.840000
   3 S    3.070000
   3 S    2.370000
   3 S    1.840000
   3 S    1.420000
   2 P    5.700000
   2 P    3.930000
   2 P    2.710000
   3 P    2.740000
   3 P    2.000000
   3 P    1.460000
   3 D    6.600000
   3 D    4.460000
   3 D    3.010000
   4 D    2.700000
   4 D    1.910000
   4 F    8.200000
   4 F    5.260000
   4 F    3.370000
   5 F    2.710000
   5 G    5.500000
   5 G    3.630000
   5 G    2.400000


 BAS: List of all Elementary Cartesian Basis Functions
 =====================================================

 The numbering in the list below (to the right of the function characteristics) is referred
 to in print-outs of MO eigenvectors and Mulliken populations in the BAS representation
 (as contrasted to the SFO representation).

 Notes:
 1. The functions are characterized by a polynomial prefactor (powers of x,y,z and r) and
    an exponential decay factor alpha.
 2. Since the basis sets are specific for an atom TYPE, the individual functions occur on
    all atoms of that type.
 3. The word 'Core' in the left margin signals that it is a Core Function (CF) : not a
    degree of freedom in the valence set, but only used to ensure orthogonalization of
    the other valence basis functions on the frozen Core Orbitals.


 (power of) X  Y  Z  R     Alpha  on Atom
            ==========     =====     ==========

 Be                                   1
                                  ---------------------------------------------------------------------------
            0  0  0  0     7.250      1
            0  0  0  0     4.200      2
            0  0  0  0     3.000      3
            0  0  0  1     3.700      4
            0  0  0  1     1.350      5
            0  0  0  1     0.950      6
            0  0  0  1     0.710      7
            1  0  0  0     3.000      8
            0  1  0  0     3.000      9
            0  0  1  0     3.000     10
            1  0  0  0     1.500     11
            0  1  0  0     1.500     12
            0  0  1  0     1.500     13
            1  0  0  0     0.750     14
            0  1  0  0     0.750     15
            0  0  1  0     0.750     16
            2  0  0  0     2.400     17
            1  1  0  0     2.400     18
            1  0  1  0     2.400     19
            0  2  0  0     2.400     20
            0  1  1  0     2.400     21
            0  0  2  0     2.400     22
            2  0  0  0     1.200     23
            1  1  0  0     1.200     24
            1  0  1  0     1.200     25
            0  2  0  0     1.200     26
            0  1  1  0     1.200     27
            0  0  2  0     1.200     28
            3  0  0  0     4.000     29
            2  1  0  0     4.000     30
            2  0  1  0     4.000     31
            1  2  0  0     4.000     32
            1  1  1  0     4.000     33
            1  0  2  0     4.000     34
            0  3  0  0     4.000     35
            0  2  1  0     4.000     36
            0  1  2  0     4.000     37
            0  0  3  0     4.000     38
            3  0  0  0     2.000     39
            2  1  0  0     2.000     40
            2  0  1  0     2.000     41
            1  2  0  0     2.000     42
            1  1  1  0     2.000     43
            1  0  2  0     2.000     44
            0  3  0  0     2.000     45
            0  2  1  0     2.000     46
            0  1  2  0     2.000     47
            0  0  3  0     2.000     48

 Total number of charge fitting functions (nprimf)       145
 Total number of Cartesian basis functions (naos)         48
 Total number of Cartesian core functions  (ncos)          0



 BAS: List of all Elementary Cartesian Basis Functions
 =====================================================

 The numbering in the list below (to the right of the function characteristics) is referred
 to in print-outs of MO eigenvectors and Mulliken populations in the BAS representation
 (as contrasted to the SFO representation).

 Notes:
 1. The functions are characterized by a polynomial prefactor (powers of x,y,z and r) and
    an exponential decay factor alpha.
 2. Since the basis sets are specific for an atom TYPE, the individual functions occur on
    all atoms of that type.
 3. The word 'Core' in the left margin signals that it is a Core Function (CF) : not a
    degree of freedom in the valence set, but only used to ensure orthogonalization of
    the other valence basis functions on the frozen Core Orbitals.


 (power of) X  Y  Z  R     Alpha  on Atom
            ==========     =====     ==========

 Be                                   1
                                  ---------------------------------------------------------------------------
            0  0  0  0     7.250      1
            0  0  0  0     4.200      2
            0  0  0  0     3.000      3
            0  0  0  1     3.700      4
            0  0  0  1     1.350      5
            0  0  0  1     0.950      6
            0  0  0  1     0.710      7
            1  0  0  0     3.000      8
            0  1  0  0     3.000      9
            0  0  1  0     3.000     10
            1  0  0  0     1.500     11
            0  1  0  0     1.500     12
            0  0  1  0     1.500     13
            1  0  0  0     0.750     14
            0  1  0  0     0.750     15
            0  0  1  0     0.750     16
            2  0  0  0     2.400     17
            1  1  0  0     2.400     18
            1  0  1  0     2.400     19
            0  2  0  0     2.400     20
            0  1  1  0     2.400     21
            0  0  2  0     2.400     22
            2  0  0  0     1.200     23
            1  1  0  0     1.200     24
            1  0  1  0     1.200     25
            0  2  0  0     1.200     26
            0  1  1  0     1.200     27
            0  0  2  0     1.200     28
            3  0  0  0     4.000     29
            2  1  0  0     4.000     30
            2  0  1  0     4.000     31
            1  2  0  0     4.000     32
            1  1  1  0     4.000     33
            1  0  2  0     4.000     34
            0  3  0  0     4.000     35
            0  2  1  0     4.000     36
            0  1  2  0     4.000     37
            0  0  3  0     4.000     38
            3  0  0  0     2.000     39
            2  1  0  0     2.000     40
            2  0  1  0     2.000     41
            1  2  0  0     2.000     42
            1  1  1  0     2.000     43
            1  0  2  0     2.000     44
            0  3  0  0     2.000     45
            0  2  1  0     2.000     46
            0  1  2  0     2.000     47
            0  0  3  0     2.000     48
1
 ***************************************************************************************************



                                              ***********************
                                              *  T E C H N I C A L  *
                                              ***********************
  



 =============================================================
 P A R A L L E L I Z A T I O N  and  V E C T O R I Z A T I O N
 =============================================================
  
 Nr of parallel processes:                                1
 Maximum vector length in NumInt loops:                 128

 IO buffersize (Mb):                                     64.000000



 =====================
 S C F   U P D A T E S
 =====================
  
 Max. nr. of cycles:                               300
 Convergence criterion:                              0.0000000100
   secondary criterion:                              0.0000000100

 Mix parameter (when DIIS does not apply):           0.2000000000
 Special mix parameter for the first cycle:          1.0000000000
 Mixed ADIIS+DIIS will be used
    Max number of expansion vectors:                10
    Pure ADIIS when Max([F,P]) is above              0.1000000000
    Pure DIIS when Max([F,P]) is below               0.0010000000
 Automatic ElectronSmearing (in case of problematic SCF convergence) disabled



 =================
 P R E C I S I O N  ***  (General: NumInt, NeglectFunctionTails, ...)  ***
 =================
  

 NumInt:           Target precision:                12.0000000000
 -------           Initial precision:               10.0000000000
                   Min. precision (optimization):   10.0000000000

 Neglect Functions:          Basis functions:        0.1000000000E-13
 ------------------          Fit functions:          0.1000000000E-13



 ===========================
 L I N E A R   S C A L I N G
 ===========================
  

 Cut-off radii density fit:                        0.1000000000E-97
 Overlap cut-off criterion AO matrix elements:     0.1000000000E-97
 Cut-offs for Coulomb potential and fitted density:0.1000000000E-97
 Cut-off criterion for Coulomb multipole terms:    0.1000000000E-97
 Progressive Convergence parameter:                 0.000000000    
1
 ***************************************************************************************************



                                            ***************************
                                            *  C O M P U T A T I O N  *
                                            ***************************
  

 Number of elements of the density matrix on this node (used, total):      1176      1176



 ===========================================
 Numerical Integration : Fuzzy Cells (Becke)
 ===========================================
  
 Becke grid quality: VERYGOOD       
  
 Lebedev angular grid order:             min:  13 max:  41
 Nr. of radial points:                   min:  81 max:  81

 Total nr. of points:         81
 Nr. of blocks:                1
 Block length:                81
 Nr. of dummy points:          0


 Test of Precision of the Numerical Integration Grid
 ===================================================

 Integral of the Total Core Density:                   0.00000000000000



 ========================
 Density Fitting (zlmFit)
 ========================
  
 ZlmFit Fit Quality: VERYGOOD       
  
 Max L-expansion:                        min:   0 max:   0
 Nr. of radial interpolation points:     min: 170 max: 170



 ======================
 RI Hartree-Fock Scheme
 ======================
  
 Fit Set Quality     : EXCELLENT
 Integration Quality : EXCELLENT
 Threshold Quality   : EXCELLENT
 Response Quality    : DEFAULT
 Is Range Separated  :  F
 
 RIHartreeFock Dependency: number of modified vectors:           0



 =====
 S C F  ***  ScaSCF  ***
 =====
  

 CYCLE    1
 SCF Error: norm([F,P])=      0.000000000000, max([F,P])=      0.000000000000
 orbitals (Q,E):
 ---------------
 S :1...7            ( 2.00    -8.0000)  ( 2.00    -1.9987)  ( 0.00    -0.8872)  ( 0.00    -0.4984)
                     ( 0.00     0.2587)  ( 0.00     6.8290)  ( 0.00    60.8817)
 P :1...3            ( 0.00    -1.9833)  ( 0.00    -0.8424)  ( 0.00     0.5275)
 D :1...2            ( 0.00    -0.8844)  ( 0.00     0.2466)
 F :1...2            ( 0.00    -0.1027)  ( 0.00     5.1628)

 CYCLE    2
  SDIIS (wt  0.000):  1.0000  0.0000
 A-DIIS (wt  1.000):  0.0000  1.0000
  DIIS coefficients:  0.0000  1.0000
 SCF Error: norm([F,P])=      2.254062614031, max([F,P])=      1.760297943642
 orbitals (Q,E):
 ---------------
 S :1...3            ( 2.00    -3.9762)  ( 2.00    -0.1182)  ( 0.00     0.0917)
 P :1...1            ( 0.00     0.1565)
 D :1...1            ( 0.00     0.5522)
 F :1...1            ( 0.00     1.6540)

 CYCLE    3
  SDIIS (wt  0.000): -0.0250  1.0250
 A-DIIS (wt  1.000):  0.0000  1.0000
  DIIS coefficients:  0.0000  1.0000
 SCF Error: norm([F,P])=      0.175972688004, max([F,P])=      0.115861415452
 orbitals (Q,E):
 ---------------
 S :1...3            ( 2.00    -4.6739)  ( 2.00    -0.2990)  ( 0.00     0.0940)
 P :1...1            ( 0.00     0.0734)
 D :1...1            ( 0.00     0.4732)
 F :1...1            ( 0.00     1.5206)

 CYCLE    4
  SDIIS (wt  0.851):  0.0000 -0.1548  1.1548
 A-DIIS (wt  0.149):  0.0000  0.0000  1.0000
  DIIS coefficients:  0.0000 -0.1317  1.1317
 SCF Error: norm([F,P])=      0.025801012005, max([F,P])=      0.015755492946
 orbitals (Q,E):
 ---------------
 S :1...3            ( 2.00    -4.7288)  ( 2.00    -0.3087)  ( 0.00     0.0935)
 P :1...1            ( 0.00     0.0631)
 D :1...1            ( 0.00     0.4637)
 F :1...1            ( 0.00     1.5044)

 CYCLE    5
  SDIIS (wt  0.997):  0.0001  0.0182 -0.1930  1.1748
 A-DIIS (wt  0.003):  0.0000  0.0000  0.0000  1.0000
  DIIS coefficients:  0.0001  0.0182 -0.1924  1.1742
 SCF Error: norm([F,P])=      0.002047060677, max([F,P])=      0.001309460854
 orbitals (Q,E):
 ---------------
 S :1...3            ( 2.00    -4.7325)  ( 2.00    -0.3092)  ( 0.00     0.0935)
 P :1...1            ( 0.00     0.0623)
 D :1...1            ( 0.00     0.4629)
 F :1...1            ( 0.00     1.5031)

 CYCLE    6
  SDIIS (wt  1.000):  0.0000 -0.0013  0.0151 -0.1259  1.1121
  DIIS coefficients:  0.0000 -0.0013  0.0151 -0.1259  1.1121
 SCF Error: norm([F,P])=      0.000099811942, max([F,P])=      0.000074033079
 orbitals (Q,E):
 ---------------
 S :1...3            ( 2.00    -4.7327)  ( 2.00    -0.3093)  ( 0.00     0.0935)
 P :1...1            ( 0.00     0.0623)
 D :1...1            ( 0.00     0.4629)
 F :1...1            ( 0.00     1.5030)

 CYCLE    7
  SDIIS (wt  1.000): -0.0000  0.0004 -0.0049  0.0411 -0.3820  1.3455
  DIIS coefficients: -0.0000  0.0004 -0.0049  0.0411 -0.3820  1.3455
 SCF Error: norm([F,P])=      0.000012983661, max([F,P])=      0.000008313494
 orbitals (Q,E):
 ---------------
 S :1...3            ( 2.00    -4.7327)  ( 2.00    -0.3093)  ( 0.00     0.0935)
 P :1...1            ( 0.00     0.0623)
 D :1...1            ( 0.00     0.4629)
 F :1...1            ( 0.00     1.5030)

 CYCLE    8
  SDIIS (wt  1.000):  0.0000 -0.0000  0.0001 -0.0012  0.0132 -0.1302  1.1181
  DIIS coefficients:  0.0000 -0.0000  0.0001 -0.0012  0.0132 -0.1302  1.1181
 SCF Error: norm([F,P])=      0.000001067810, max([F,P])=      0.000000685211
 orbitals (Q,E):
 ---------------
 S :1...3            ( 2.00    -4.7327)  ( 2.00    -0.3093)  ( 0.00     0.0935)
 P :1...1            ( 0.00     0.0623)
 D :1...1            ( 0.00     0.4629)
 F :1...1            ( 0.00     1.5030)

 CYCLE    9
  SDIIS (wt  1.000):  0.0000 -0.0000  0.0000 -0.0001  0.0032 -0.0400  1.0369
  DIIS coefficients:  0.0000 -0.0000  0.0000 -0.0001  0.0032 -0.0400  1.0369
 SCF Error: norm([F,P])=      0.000000011632, max([F,P])=      0.000000006268
 orbitals (Q,E):
 ---------------
 S :1...3            ( 2.00    -4.7327)  ( 2.00    -0.3093)  ( 0.00     0.0935)
 P :1...1            ( 0.00     0.0623)
 D :1...1            ( 0.00     0.4629)
 F :1...1            ( 0.00     1.5030)

 SCF CONVERGED

 CYCLE   10
1
 ***************************************************************************************************



                                                *******************
                                                *  R E S U L T S  *
                                                *******************
  
  
 Hartree-Fock exchange energy:   -2.66694382196259     
 *** Setting up for NEW gradients in Focky
 *** Using FIT density in Focky

 Orbital Energies, per Irrep and Spin:
 ======================================
                        Occup              E (au)              E (eV)       Diff (eV) with prev. cycle
                        -----      --------------------        ------       --------------------------
 S
               1        2.000     -0.47326626541499E+01      -128.782               1.19E-08
               2        2.000     -0.30925923344937E+00        -8.415               3.59E-10
               3        0.000      0.93484565423880E-01         2.544
               4        0.000      0.55475134026847E+00        15.096
               5        0.000      0.24881177016620E+01        67.705
               6        0.000      0.10802409502164E+02       293.949
               7        0.000      0.66945972447172E+02      1821.693
 P
               1        0.000      0.62282520864732E-01         1.695
               2        0.000      0.52188861941213E+00        14.201
               3        0.000      0.37413060953148E+01       101.806
 D
               1        0.000      0.46293812631714E+00        12.597
               2        0.000      0.26463214763528E+01        72.010
 F
               1        0.000      0.15030465554138E+01        40.900
               2        0.000      0.80558159990854E+01       219.210
  
 HOMO :        2 S                -0.30925923344937E+00
 LUMO :        1 P                 0.62282520864732E-01
  


 Orbital Energies, all Irreps
 ========================================

 Irrep        no.  (spin)   Occup              E (au)                E (eV)
 ---------------------------------------------------------------------------
 S             1             2.00       -0.47326626541499E+01      -128.7823
 S             2             2.00       -0.30925923344937E+00        -8.4154
 P             1             0.00        0.62282520864732E-01         1.6948
 S             3             0.00        0.93484565423880E-01         2.5438
 D             1             0.00        0.46293812631714E+00        12.5972
 P             2             0.00        0.52188861941213E+00        14.2013
 S             4             0.00        0.55475134026847E+00        15.0956
 F             1             0.00        0.15030465554138E+01        40.9000
 S             5             0.00        0.24881177016620E+01        67.7051
 D             2             0.00        0.26463214763528E+01        72.0101
 P             3             0.00        0.37413060953148E+01       101.8061
 F             2             0.00        0.80558159990854E+01       219.2099
 S             6             0.00        0.10802409502164E+02       293.9485
 S             7             0.00        0.66945972447172E+02      1821.6926


 All Electron Calculation, thus no Orbital Energies of the Core Orbitals are calculated



 =======================================
 M U L L I K E N   P O P U L A T I O N S
 =======================================
  
 The survey below gives for each atom:
 a) the total charge (Z minus electrons)
 b) the net spin polarization (nr of electrons spin-A minus spin-B)
 c) for each spin the atomic electron valence density (integrated) per L-value.

 Atom              Charge    Spin density          S         P         D         F
 ----              ------    ------------       ------    ------    ------    ------
 1 Be              0.0000                       4.0000    0.0000    0.0000    0.0000

 Populations of individual BAS functions
 ----------------------------------------
 1 Be           0.0682  1.3998  0.0745  0.4116  0.4758  1.2622  0.3079  0.0000  0.0000  0.0000
                0.0000  0.0000  0.0000  0.0000  0.0000  0.0000  0.0000  0.0000  0.0000  0.0000
                0.0000  0.0000  0.0000  0.0000  0.0000  0.0000  0.0000  0.0000  0.0000  0.0000
                0.0000  0.0000  0.0000  0.0000  0.0000  0.0000  0.0000  0.0000  0.0000  0.0000
                0.0000  0.0000  0.0000  0.0000  0.0000  0.0000  0.0000  0.0000

 Gross Charges per Atom (Z minus electrons)
 ==========================================
             0.0000
 Net Total:  0.00000000



 =======================================================================
 Electrostatic potential at the Nuclei due to electrons and other nuclei
 =======================================================================
  
         Atom                  Potential
         ----                  ---------
     1)   Be                  8.40879901
 
 
 ========================
 No memory problems found
 ========================
 
 Maximum number of active allocate calls:         454
 
 *******************************************************************************

                             A D F   E X I T
 NORMAL TERMINATION



 =================
 Timing Statistics
 =================
  
 Total Used :                     CPU=        0.79      System=        0.06     Elapsed=        2.23

 Calls  Section                     ( Mean, Percentage )
 ---------------------------------------------------------------------------------------------------
     3  ><      ................      0.00    0.38             0.00    0.04             0.00    0.40
     1  INIT    ................      0.03    4.34             0.01   18.50             1.29   57.66
     1  GEOMET  ................      0.03    3.21             0.03   43.07             0.09    4.22
     1  INPUTA  ................      0.00    0.52             0.00    0.00             0.01    0.26
     1  MAINSY  ................      0.01    1.18             0.00    2.25             0.02    0.92
     1  SYMFIT  ................      0.00    0.13             0.00    0.04             0.00    0.09
     1  CORORT  ................      0.00    0.09             0.00    0.00             0.00    0.03
     1  SYMORB  ................      0.00    0.09             0.00    0.04             0.00    0.03
     1  FITINT  ................      0.01    1.29             0.00    1.42             0.01    0.67
     1  CLSMAT  ................      0.00    0.16             0.00    0.00             0.00    0.08
     1  ORTHON  ................      0.01    0.74             0.00    0.23             0.01    0.54
     1  GENPT   ................      0.01    1.88             0.00    1.88             0.02    0.92
     1  PTBAS   ................      0.00    0.34             0.00    2.24             0.01    0.41
    10  FOCKY   ................      0.06   77.37             0.00   22.41             0.07   29.87
    10  FOCKTR  ................      0.00    0.81             0.00    1.17             0.00    0.33
    10  SDIIS   ................      0.00    2.56             0.00    3.27             0.00    1.42
     1  COREPS  ................      0.02    2.30             0.00    1.71             0.02    0.99
     1  POPAN   ................      0.01    0.95             0.00    0.00             0.01    0.42
     1  DEBYE   ................      0.00    0.19             0.00    0.09             0.00    0.14
     1  EXIT PROCEDURE .........      0.01    1.45             0.00    1.65             0.01    0.58


 Currently Open Files (EXIT00)
 ====================

 Unit    Access Format  Status   Type       Ident (file)
 -------------------------------------------------------
   3      SEQ    FORM   TRANSP  NORMAL      LOGFILE
                                          ( logfile )


 Buffered I/O statistics
 =======================
 Memory available:                     67108864
 Number of records fitting in memory:     16131
 Input :   0.1% of                        37866  *4k bytes
 Output:   8.9% of                         2309  *4k bytes
 Records from serial files evicted:           0
                    others evicted:           0
 Hash table lookups:      78038 with          0 conflicts (  0.00%)

 ***************************************************************************************************
 (LOGFILE)
 <Mar23-2019> <10:00:01>  ADF 2018  RunTime: Mar23-2019 10:00:01  Nodes: 1  Procs: 1
 <Mar23-2019> <10:00:02>  Beryllium (QZ, all electron, 7S 3P 2D 2F)
 <Mar23-2019> <10:00:02>  RunType   : CREATE
 <Mar23-2019> <10:00:02>  Net Charge: 0 (Nuclei minus Electrons)
 <Mar23-2019> <10:00:02>  Symmetry  : ATOM
  Coordinates
    Atom         X           Y           Z   (Angstrom)
    1.Be        0.000000    0.000000    0.000000
 <Mar23-2019> <10:00:02>  >>>> CORORT
 <Mar23-2019> <10:00:02>  >>>> FITINT
 <Mar23-2019> <10:00:02>  >>>> CLSMAT
 <Mar23-2019> <10:00:02>  >>>> ORTHON
 <Mar23-2019> <10:00:02>  >>>> GENPT
 <Mar23-2019> <10:00:02>  Block Length=  81
 <Mar23-2019> <10:00:02>  >>>> PTBAS
 <Mar23-2019> <10:00:02>  >>>> CYCLE
 <Mar23-2019> <10:00:02>  CalcFitR12Fit
 <Mar23-2019> <10:00:02>  CalcFitCoeff
 <Mar23-2019> <10:00:02>              |Error|         MaxErr       Wt(A-DIIS)
 <Mar23-2019> <10:00:02>      1      0.00000000      0.00000000
 <Mar23-2019> <10:00:02>      2      2.25406261      1.76029794    100.0
 <Mar23-2019> <10:00:02>      3      0.17597269      0.11586142    100.0
 <Mar23-2019> <10:00:02>      4      0.02580101      0.01575549     14.9
 <Mar23-2019> <10:00:02>      5      0.00204706      0.00130946      0.3
 <Mar23-2019> <10:00:02>      6      0.00009981      0.00007403      0.0
 <Mar23-2019> <10:00:02>      7      0.00001298      0.00000831      0.0
 <Mar23-2019> <10:00:02>      8      0.00000107      0.00000069      0.0
 <Mar23-2019> <10:00:02>      9      0.00000001      0.00000001      0.0
 <Mar23-2019> <10:00:02>  SCF converged
 <Mar23-2019> <10:00:02>     10      0.00000000      0.00000000      0.0
 <Mar23-2019> <10:00:02>  >>>> POPAN
 <Mar23-2019> <10:00:02>  >>>> DEBYE
 <Mar23-2019> <10:00:02>  NORMAL TERMINATION
 <Mar23-2019> <10:00:02>  END


 Parallel Execution: Process Information
 ==============================================================================
 Rank   Node Name                              NodeID   MyNodeRank  NodeMaster
    0   vladimir-kubuntu                          0          0          0
    1   vladimir-kubuntu                          0          1         -1
    2   vladimir-kubuntu                          0          2         -1
    3   vladimir-kubuntu                          0          3         -1
 ==============================================================================


May use up to 7569MB of RAM as shared memory on node 0
 
Title Be

ATOMS
 Be        0.000000000000      0.000000000000      0.000000000000
END

CHARGE 0 0

XC
  HartreeFock
END

RIHartreeFock
  UseMe True
  Quality Excellent
  DependencyThreshold 1.0E-8
End

NUMERICALQUALITY excellent

EPRINT
  SFO NOEIG NOOVL NOORBPOP
  SCF NOPOP
END

NOPRINT BAS FUNCTIONS

TOTALENERGY
NOTOTEN

Fragments
Be t21.Be
End

 *******************************************************************************
 *                                                                             *
 *  -------------------------------------                                      *
 *   Amsterdam Density Functional  (ADF)         2018                          *
 *  -------------------------------------                                      *
 *                                               r70630 2018-11-24             *
 *                                                                             *
 *                                                                             *
 *                              =================                              *
 *                              |               |                              *
 *                              |     A D F     |                              *
 *                              |               |                              *
 *                              =================                              *
 *                                                                             *
 *                                                                             *
 *   Online information and documentation:  https://www.scm.com/support/       *
 *   E-mail:  support@scm.com   info@scm.com                                   *
 *                                                                             *
 *   Scientific publications using ADF results must be properly referenced     *
 *   See the User Manuals (or the web site) for recommended citations          *
 *   The terms and conditions of the End User License Agreement apply to       *
 *   the use of ADF, https://www.scm.com/license-terms/                        *
 *                                                                             *
 **********************  x86_64_linux_intel / intelmpi  ************************
 
 Licensed to: Mr. Vladimir Konjkov / Florida Institute of Technology / Melbourne / Florida / USA
 SCM User ID: u21173
  
 ADF 2018  RunTime: Mar23-2019 10:00:03  Nodes: 1  Procs: 4

 Temporary files are created in /tmp/kid_0.571521660


Communication costs MPI_COMM_WORLD:      0.274 usec per message,   0.0032 usec per 8-byte item
Communication costs for intra-node:      0.278 usec per message,   0.0032 usec per 8-byte item

 Be



 ===========================
 A T T A C H E D   F I L E S
 ===========================
  



 ===============================
 M O D E L   P A R A M E T E R S
 ===============================
  
 DENSITY FUNCTIONAL POTENTIAL (scf)
    Hybrid:                            HARTREEFOCK                             == Not Default ==

 SPIN  (restricted / unrestr.)
    Molecule:                          Restricted                               
    Fragments:                         Restricted                               

 OTHER ASPECTS
    Relativistic Corrections:          ---                                      

    Nuclear Charge Density Model:      Point Charge Nuclei                      
    Core Treatment:                    Frozen Orbital(s)                        

    Hyperfine or Zeeman Interaction:   ---                                      


 Fragment File(s)
 ----------------
 Be:
         file : t21.Be
         jobid: ADF 2018  RunTime: Mar23-2019 10:00:01  Nodes: 1  Procs: 1
         title: Beryllium (QZ, all electron, 7S 3P 2D 2F)



                                        ************************************
                                        *  R U N   T Y P E : SINGLE POINT  *
                                        ************************************
  



 ===============
 G E O M E T R Y  ***  Single Atom  ***
 ===============
  

 ATOMS
 =====                            X Y Z                    CHARGE
                                (Angstrom)             Nucl     +Core       At.Mass
                       --------------------------    ----------------       -------
    1  Be              0.0000    0.0000    0.0000      4.00      4.00        9.0122


 FRAGMENTS
 =========                                     Atoms in this Fragment     Cart. coord.s (Angstrom)
                                               -------------------------------------------------------
    1  Be                                                1  Be           0.0000    0.0000    0.0000



 =====================================
 S Y M M E T R Y ,   E L E C T R O N S
 =====================================
  
 Symmetry: ATOM

 Irreducible Representations, including subspecies
 -------------------------------------------------
 S
 P:x  P:y  P:z
 D:z2  D:x2-y2  D:xy  D:xz  D:yz
 F:z3  F:z  F:xyz  F:z2x  F:z2y  F:x  F:y


 Configuration of Valence Electrons
 ==================================
 ( determined in the SCF procedure )

 Total:   4

 Net Charge: 0 (Nuclei minus Electrons)

 Aufbau principle for MO occupations will be applied through SCF cycle no.     150
 Thereafter, the program will assign electrons to MOs that are spatially
 similar to the occupied MOs in a "reference" cycle ("KeepOrbitals").
 The reference cycle is always the PREVIOUS cycle: it will evolve with
 the SCF procedure.



 =======
 S F O s  ***  (Symmetrized Fragment Orbitals)  ***
 =======
  
 SFOs are linear combinations of (valence) Fragment Orbitals (FOs), such that the SFOs transform as the
 irreducible representations of the (molecular) symmetry group. Each SFO is therefore characterized by
 an irrep of the molecule and by a few (or only one) generating FOs.
 The SFOs constitute a symmetry-adapted basis for the Fock matrix. The MO eigenvector coefficients in
 this basis provide a direct interpretation of the MOs in terms of Frontier Orbital Theory.

 The SFOs are combined with auxiliary Core Functions (CFs) to ensure orthogonalization on the (frozen)
 Core Orbitals (COs). The Core-orthogonalized SFOs (CSFOs) constitute the true Fock basis.

 The FOs, and hence also the (C)SFOs are combinations of the elementary basis functions (BAS). The basis
 functions that participate in the description of the SFOs depend on the irrep. The indices of the
 involved functions are printed below for each irrep.
 (The complete list of primitive basis functions is printed in another section)

 Total nr. of (C)SFOs (summation over all irreps) :    40

 NOTE: a (C)SFO that is defined as a combination of more than one FO is usually NOT normalized.



                                       === S ===
 Nr. of SFOs :    7
 Cartesian basis functions that participate in this irrep (total number =     7) :
      1     2     3     4     5     6     7

    SFO  (index         Fragment          Generating    Expansion in Fragment Orbitals
  indx  incl.CFs)   Occup   Orb.Energy   FragmentType  Coeff.   Orbital     on Fragment
 --------------------------------------------------------------------------------------
     1       1      2.000      -4.733 au  Be            1.00      1 S               1
                        (    -128.782 eV)
     2       2      2.000      -0.309 au  Be            1.00      2 S               1
                        (      -8.415 eV)
     3       3       --         0.093 au  Be            1.00      3 S               1
                        (       2.544 eV)
     4       4       --         0.555 au  Be            1.00      4 S               1
                        (      15.096 eV)
     5       5       --         2.488 au  Be            1.00      5 S               1
                        (      67.705 eV)
     6       6       --        10.802 au  Be            1.00      6 S               1
                        (     293.949 eV)
     7       7       --        66.946 au  Be            1.00      7 S               1
                        (    1821.693 eV)



                                       === P:x ===
 Nr. of SFOs :    3
 Cartesian basis functions that participate in this irrep (total number =     3) :
      8    11    14

    SFO  (index         Fragment          Generating    Expansion in Fragment Orbitals
  indx  incl.CFs)   Occup   Orb.Energy   FragmentType  Coeff.   Orbital     on Fragment
 --------------------------------------------------------------------------------------
     1       1       --         0.062 au  Be            1.00      1 P:x             1
                        (       1.695 eV)
     2       2       --         0.522 au  Be            1.00      2 P:x             1
                        (      14.201 eV)
     3       3       --         3.741 au  Be            1.00      3 P:x             1
                        (     101.806 eV)



                                       === P:y ===
 Nr. of SFOs :    3
 Cartesian basis functions that participate in this irrep (total number =     3) :
      9    12    15

    SFO  (index         Fragment          Generating    Expansion in Fragment Orbitals
  indx  incl.CFs)   Occup   Orb.Energy   FragmentType  Coeff.   Orbital     on Fragment
 --------------------------------------------------------------------------------------
     1       1       --         0.062 au  Be            1.00      1 P:y             1
                        (       1.695 eV)
     2       2       --         0.522 au  Be            1.00      2 P:y             1
                        (      14.201 eV)
     3       3       --         3.741 au  Be            1.00      3 P:y             1
                        (     101.806 eV)



                                       === P:z ===
 Nr. of SFOs :    3
 Cartesian basis functions that participate in this irrep (total number =     3) :
     10    13    16

    SFO  (index         Fragment          Generating    Expansion in Fragment Orbitals
  indx  incl.CFs)   Occup   Orb.Energy   FragmentType  Coeff.   Orbital     on Fragment
 --------------------------------------------------------------------------------------
     1       1       --         0.062 au  Be            1.00      1 P:z             1
                        (       1.695 eV)
     2       2       --         0.522 au  Be            1.00      2 P:z             1
                        (      14.201 eV)
     3       3       --         3.741 au  Be            1.00      3 P:z             1
                        (     101.806 eV)



                                       === D:z2 ===
 Nr. of SFOs :    2
 Cartesian basis functions that participate in this irrep (total number =     6) :
     17    20    22    23    26    28

    SFO  (index         Fragment          Generating    Expansion in Fragment Orbitals
  indx  incl.CFs)   Occup   Orb.Energy   FragmentType  Coeff.   Orbital     on Fragment
 --------------------------------------------------------------------------------------
     1       1       --         0.463 au  Be            1.00      1 D:z2            1
                        (      12.597 eV)
     2       2       --         2.646 au  Be            1.00      2 D:z2            1
                        (      72.010 eV)



                                       === D:x2-y2 ===
 Nr. of SFOs :    2
 Cartesian basis functions that participate in this irrep (total number =     4) :
     17    20    23    26

    SFO  (index         Fragment          Generating    Expansion in Fragment Orbitals
  indx  incl.CFs)   Occup   Orb.Energy   FragmentType  Coeff.   Orbital     on Fragment
 --------------------------------------------------------------------------------------
     1       1       --         0.463 au  Be            1.00      1 D:x2-y2         1
                        (      12.597 eV)
     2       2       --         2.646 au  Be            1.00      2 D:x2-y2         1
                        (      72.010 eV)



                                       === D:xy ===
 Nr. of SFOs :    2
 Cartesian basis functions that participate in this irrep (total number =     2) :
     18    24

    SFO  (index         Fragment          Generating    Expansion in Fragment Orbitals
  indx  incl.CFs)   Occup   Orb.Energy   FragmentType  Coeff.   Orbital     on Fragment
 --------------------------------------------------------------------------------------
     1       1       --         0.463 au  Be            1.00      1 D:xy            1
                        (      12.597 eV)
     2       2       --         2.646 au  Be            1.00      2 D:xy            1
                        (      72.010 eV)



                                       === D:xz ===
 Nr. of SFOs :    2
 Cartesian basis functions that participate in this irrep (total number =     2) :
     19    25

    SFO  (index         Fragment          Generating    Expansion in Fragment Orbitals
  indx  incl.CFs)   Occup   Orb.Energy   FragmentType  Coeff.   Orbital     on Fragment
 --------------------------------------------------------------------------------------
     1       1       --         0.463 au  Be            1.00      1 D:xz            1
                        (      12.597 eV)
     2       2       --         2.646 au  Be            1.00      2 D:xz            1
                        (      72.010 eV)



                                       === D:yz ===
 Nr. of SFOs :    2
 Cartesian basis functions that participate in this irrep (total number =     2) :
     21    27

    SFO  (index         Fragment          Generating    Expansion in Fragment Orbitals
  indx  incl.CFs)   Occup   Orb.Energy   FragmentType  Coeff.   Orbital     on Fragment
 --------------------------------------------------------------------------------------
     1       1       --         0.463 au  Be            1.00      1 D:yz            1
                        (      12.597 eV)
     2       2       --         2.646 au  Be            1.00      2 D:yz            1
                        (      72.010 eV)



                                       === F:z3 ===
 Nr. of SFOs :    2
 Cartesian basis functions that participate in this irrep (total number =     6) :
     31    36    38    41    46    48

    SFO  (index         Fragment          Generating    Expansion in Fragment Orbitals
  indx  incl.CFs)   Occup   Orb.Energy   FragmentType  Coeff.   Orbital     on Fragment
 --------------------------------------------------------------------------------------
     1       1       --         1.503 au  Be            1.00      1 F:z3            1
                        (      40.900 eV)
     2       2       --         8.056 au  Be            1.00      2 F:z3            1
                        (     219.210 eV)



                                       === F:z ===
 Nr. of SFOs :    2
 Cartesian basis functions that participate in this irrep (total number =     4) :
     31    36    41    46

    SFO  (index         Fragment          Generating    Expansion in Fragment Orbitals
  indx  incl.CFs)   Occup   Orb.Energy   FragmentType  Coeff.   Orbital     on Fragment
 --------------------------------------------------------------------------------------
     1       1       --         1.503 au  Be            1.00      1 F:z             1
                        (      40.900 eV)
     2       2       --         8.056 au  Be            1.00      2 F:z             1
                        (     219.210 eV)



                                       === F:xyz ===
 Nr. of SFOs :    2
 Cartesian basis functions that participate in this irrep (total number =     2) :
     33    43

    SFO  (index         Fragment          Generating    Expansion in Fragment Orbitals
  indx  incl.CFs)   Occup   Orb.Energy   FragmentType  Coeff.   Orbital     on Fragment
 --------------------------------------------------------------------------------------
     1       1       --         1.503 au  Be            1.00      1 F:xyz           1
                        (      40.900 eV)
     2       2       --         8.056 au  Be            1.00      2 F:xyz           1
                        (     219.210 eV)



                                       === F:z2x ===
 Nr. of SFOs :    2
 Cartesian basis functions that participate in this irrep (total number =     6) :
     29    32    34    39    42    44

    SFO  (index         Fragment          Generating    Expansion in Fragment Orbitals
  indx  incl.CFs)   Occup   Orb.Energy   FragmentType  Coeff.   Orbital     on Fragment
 --------------------------------------------------------------------------------------
     1       1       --         1.503 au  Be            1.00      1 F:z2x           1
                        (      40.900 eV)
     2       2       --         8.056 au  Be            1.00      2 F:z2x           1
                        (     219.210 eV)



                                       === F:z2y ===
 Nr. of SFOs :    2
 Cartesian basis functions that participate in this irrep (total number =     6) :
     30    35    37    40    45    47

    SFO  (index         Fragment          Generating    Expansion in Fragment Orbitals
  indx  incl.CFs)   Occup   Orb.Energy   FragmentType  Coeff.   Orbital     on Fragment
 --------------------------------------------------------------------------------------
     1       1       --         1.503 au  Be            1.00      1 F:z2y           1
                        (      40.900 eV)
     2       2       --         8.056 au  Be            1.00      2 F:z2y           1
                        (     219.210 eV)



                                       === F:x ===
 Nr. of SFOs :    2
 Cartesian basis functions that participate in this irrep (total number =     4) :
     29    32    39    42

    SFO  (index         Fragment          Generating    Expansion in Fragment Orbitals
  indx  incl.CFs)   Occup   Orb.Energy   FragmentType  Coeff.   Orbital     on Fragment
 --------------------------------------------------------------------------------------
     1       1       --         1.503 au  Be            1.00      1 F:x             1
                        (      40.900 eV)
     2       2       --         8.056 au  Be            1.00      2 F:x             1
                        (     219.210 eV)



                                       === F:y ===
 Nr. of SFOs :    2
 Cartesian basis functions that participate in this irrep (total number =     4) :
     30    35    40    45

    SFO  (index         Fragment          Generating    Expansion in Fragment Orbitals
  indx  incl.CFs)   Occup   Orb.Energy   FragmentType  Coeff.   Orbital     on Fragment
 --------------------------------------------------------------------------------------
     1       1       --         1.503 au  Be            1.00      1 F:y             1
                        (      40.900 eV)
     2       2       --         8.056 au  Be            1.00      2 F:y             1
                        (     219.210 eV)

 Total number of charge fitting functions (nprimf)       145
 Total number of Cartesian basis functions (naos)         48
 Total number of Cartesian core functions  (ncos)          0

1
 ***************************************************************************************************



                                              ***********************
                                              *  T E C H N I C A L  *
                                              ***********************
  



 =============================================================
 P A R A L L E L I Z A T I O N  and  V E C T O R I Z A T I O N
 =============================================================
  
 Nr of parallel processes:                                4
 Maximum vector length in NumInt loops:                 128

 IO buffersize (Mb):                                     64.000000



 =====================
 S C F   U P D A T E S
 =====================
  
 Max. nr. of cycles:                               300
 Convergence criterion:                              0.0000010000
   secondary criterion:                              0.0010000000

 Mix parameter (when DIIS does not apply):           0.2000000000
 Mixed ADIIS+DIIS will be used
    Max number of expansion vectors:                10
    Pure ADIIS when Max([F,P]) is above              0.1000000000
    Pure DIIS when Max([F,P]) is below               0.0010000000
 Automatic ElectronSmearing (in case of problematic SCF convergence) disabled



 =================
 P R E C I S I O N  ***  (General: NumInt, NeglectFunctionTails, ...)  ***
 =================
  

 NumInt:           Target precision:                10.0000000000
 -------           Initial precision:               10.0000000000
                   Min. precision (optimization):   10.0000000000

 Neglect Functions:          Basis functions:        0.1000000000E-11
 ------------------          Fit functions:          0.1000000000E-11



 ===========================
 L I N E A R   S C A L I N G
 ===========================
  

 Cut-off radii density fit:                        0.1000000000E-13
 Overlap cut-off criterion AO matrix elements:     0.1000000000E-11
 Cut-offs for Coulomb potential and fitted density:0.1000000000E-13
 Cut-off criterion for Coulomb multipole terms:    0.1000000000E-13
 Progressive Convergence parameter:                 0.000000000    
1
 ***************************************************************************************************



                                            ***************************
                                            *  C O M P U T A T I O N  *
                                            ***************************
  

 Number of elements of the density matrix on this node (used, total):      1176      1176



 ===========================================
 Numerical Integration : Fuzzy Cells (Becke)
 ===========================================
  
 Becke grid quality: EXCELLENT      
  
 Lebedev angular grid order:             min:  17 max:  47
 Nr. of radial points:                   min: 127 max: 127

 Total nr. of points:        127
 Nr. of blocks:                1
 Block length:               127
 Nr. of dummy points:          0


 Test of Precision of the Numerical Integration Grid
 ===================================================

 Integral of the Total Core Density:                   0.00000000000000



 ========================
 Density Fitting (zlmFit)
 ========================
  
 ZlmFit Fit Quality: EXCELLENT      
  
 Max L-expansion:                        min:  15 max:  15
 Nr. of radial interpolation points:     min: 238 max: 238



 ======================
 RI Hartree-Fock Scheme
 ======================
  
 Fit Set Quality     : EXCELLENT
 Integration Quality : EXCELLENT
 Threshold Quality   : EXCELLENT
 Response Quality    : DEFAULT
 Is Range Separated  :  F
 
 RIHartreeFock Dependency: number of modified vectors:           0



 =====
 S C F  ***  ScaSCF  ***
 =====
  
 Initial density matrix is calculated as sum of fragments

 CYCLE    1
 Orbital Data from active fragment used
 SCF Error: norm([F,P])=      0.000004604547, max([F,P])=      0.000002754811
 orbitals (Q,E):
 ---------------
 S :1...7            ( 2.00    -4.7327)  ( 2.00    -0.3093)  ( 0.00     0.0935)  ( 0.00     0.5548)
                     ( 0.00     2.4881)  ( 0.00    10.8024)  ( 0.00    66.9460)
 P :1...3            ( 0.00     0.0623)  ( 0.00     0.5219)  ( 0.00     3.7413)
 D :1...2            ( 0.00     0.4629)  ( 0.00     2.6463)
 F :1...2            ( 0.00     1.5030)  ( 0.00     8.0558)

 CYCLE    2
   MIX coefficients:  0.8000  0.2000
 SCF Error: norm([F,P])=      0.000000417849, max([F,P])=      0.000000254499
 orbitals (Q,E):
 ---------------
 S :1...3            ( 2.00    -4.7327)  ( 2.00    -0.3093)  ( 0.00     0.0935)
 P :1...1            ( 0.00     0.0623)
 D :1...1            ( 0.00     0.4629)
 F :1...1            ( 0.00     1.5030)

 SCF CONVERGED

 CYCLE    3
1
 ***************************************************************************************************



                                                *******************
                                                *  R E S U L T S  *
                                                *******************
  
  
 Hartree-Fock exchange energy:   -2.66694293003399     
 *** Setting up for NEW gradients in Focky
 *** Using FIT density in Focky

 Orbital Energies, per Irrep and Spin:
 ======================================
                        Occup              E (au)              E (eV)       Diff (eV) with prev. cycle
                        -----      --------------------        ------       --------------------------
 S
               1        2.000     -0.47326580947353E+01      -128.782              -2.42E-05
               2        2.000     -0.30925753310106E+00        -8.415              -4.15E-06
               3        0.000      0.93485435033401E-01         2.544
               4        0.000      0.55475270635993E+00        15.096
               5        0.000      0.24881207090584E+01        67.705
               6        0.000      0.10802412630772E+02       293.949
               7        0.000      0.66945976643186E+02      1821.693
 P
               1        0.000      0.62283758528844E-01         1.695
               2        0.000      0.52189063244755E+00        14.201
               3        0.000      0.37413094963178E+01       101.806
 D
               1        0.000      0.46293934793288E+00        12.597
               2        0.000      0.26463239853929E+01        72.010
 F
               1        0.000      0.15030480348968E+01        40.900
               2        0.000      0.80558189702168E+01       219.210
  
 HOMO :        2 S                -0.30925753310106E+00
 LUMO :        1 P                 0.62283758528844E-01
  


 Orbital Energies, all Irreps
 ========================================

 Irrep        no.  (spin)   Occup              E (au)                E (eV)
 ---------------------------------------------------------------------------
 S             1             2.00       -0.47326580947353E+01      -128.7822
 S             2             2.00       -0.30925753310106E+00        -8.4153
 P             1             0.00        0.62283758528844E-01         1.6948
 S             3             0.00        0.93485435033401E-01         2.5439
 D             1             0.00        0.46293934793288E+00        12.5972
 P             2             0.00        0.52189063244755E+00        14.2014
 S             4             0.00        0.55475270635993E+00        15.0956
 F             1             0.00        0.15030480348968E+01        40.9000
 S             5             0.00        0.24881207090584E+01        67.7052
 D             2             0.00        0.26463239853929E+01        72.0101
 P             3             0.00        0.37413094963178E+01       101.8062
 F             2             0.00        0.80558189702168E+01       219.2100
 S             6             0.00        0.10802412630772E+02       293.9486
 S             7             0.00        0.66945976643186E+02      1821.6927


 All Electron Calculation, thus no Orbital Energies of the Core Orbitals are calculated



 =======================
 T O T A L   E N E R G Y  ***  (contributions)  ***
 =======================
  

*** Note ***

The requirements to the integration accuracy are somewhat higher than for bond energies.
One can expect an accuracy of roughly (accint-2) decimal places, where accint is the
general integration accuracy parameter.
The Coulomb energy is the sum of the Hartree energy (electron-electron Coulomb interaction)
and the nuclear-electron attraction energy. It includes the correction for the first-order
fit error in the Hartree energy.
The potential energy is the sum of the nuclear repulsion energy, the Coulomb energy,
and the exchange-correlation energy.

Kinetic energy           =           14.573028510788

Nuclear repulsion energy =            0.000000000000
Coulomb energy           =          -26.479096638504
XC energy                =           -2.666942930034
Total potential energy   =          -29.146039568538

----------------------------------------------------
Total energy             =          -14.573011057750
Virial theorem           =            1.999998802374
----------------------------------------------------

 Gross Charges per Atom (Z minus electrons)
 ==========================================
             0.0000
 Net Total:  0.00000000



 =================================================================
 M U L T I P O L E   D E R I V E D   C H A R G E   A N A L Y S I S
 =================================================================

 This charge analysis uses the atomic multipoles (obtained from the fitted density) up to some level X,
 and reconstructs these multipoles exactly (up to level X) by distributing charges over all atoms.
 This is achieved by using Lagrange multipliers and a weight function to keep the multipoles local.

 Dummy atoms can be included (by setting INCDUM in MDC-block to 1) to obtain a fractional charge.
 This is generally useful and necessary only for small symmetrical molecules, when there are not
 enough degrees of freedom to reconstruct the multipoles.

 Since the atomic multipoles are reconstructed up to level X,
 the molecular multipoles are represented also up to level X.
 The recommended level is to reconstruct up to quadrupole : -> MDC-q charges.

 See: M. Swart, P.Th. van Duijnen, J.G. Snijders, J.Comput.Chem., (2001), p. 79-88.

 ------------------------------------------------------------- 
 Atomic electronic multipole moments from SCF equations (a.u.)
 ------------------------------------------------------------- 

   atom        charge        dip-x     dip-y     dip-z      quad-xx   quad-xy   quad-xz   quad-yy   quad-yz   quad-zz
 --------------------------------------------------------------------------------------------------------------------
    1 Be     0.000000    -0.000000  0.000000  0.000000     0.000000  0.000000  0.000000 -0.000000  0.000000  0.000000

 --------------------------------------- 
 Multipole derived atomic charges (a.u.)
 --------------------------------------- 

 The MDC-m charges are just the Monopole terms in the multipole expansion, while for the MDC-d charges
 also the Dipoles are reconstructed. The usually preferred charges are the MDC-q charges.
 These reconstruct the Monopoles, Dipoles and Quadrupoles (both atomic AND molecular).

        Atom    Level:     MDC-m        MDC-d        MDC-q
 ---------------------------------------------------------
     1     Be           0.000000     0.000000     0.000000

 ------------------------------------------------ 
 Average absolute deviations in atomic multipoles
 ------------------------------------------------ 

 Stated here are the average differences between the atomic multipoles
 and the reconstructed atomic multipoles (from the distributed charges).
 If these values are not zero, this means there are not enough degrees of freedom,
 to be able to reconstruct the atomic multipoles. (This usually happens only
 for small and/or highly symmetric molecules). If this is the case, one could add
 dummy atoms as extra point charges (and setting INCDUM in MDC-block to 1).

 Level:                                 MDC-d        MDC-q
 ---------------------------------------------------------
 Charge   (a.u.)                       0.0000       0.0000
 Dipole   (Debye)                      0.0000       0.0000
 Quad.    (a.u.)                       0.0000       0.0000

 --------------------------------------- 
 Represented molecular multipole moments
 --------------------------------------- 

 Given here are the Molecular multipole moments from the atomic charges, and from the Fit Density.
 Note that the atomic charges represent the latter, NOT the ones from the Exact density.

            Q (a.u.)             Dipole moment (Debye)                                          Quadrupole moment (a.u.)
                                 x         y         z              xx        xy        xz        yy        yz        zz
------------------------------------------------------------------------------------------------------------------------
MDC-m         0.0000        0.0000    0.0000    0.0000          0.0000    0.0000    0.0000    0.0000    0.0000    0.0000
MDC-d         0.0000        0.0000    0.0000    0.0000          0.0000    0.0000    0.0000    0.0000    0.0000    0.0000
MDC-q         0.0000        0.0000    0.0000    0.0000          0.0000    0.0000    0.0000    0.0000    0.0000    0.0000
 
Fit.Dens.     0.0000       -0.0000    0.0000    0.0000          0.0000    0.0000    0.0000   -0.0000    0.0000    0.0000



 =============
 Dipole Moment  ***  (Debye)  ***
 =============
  
 Vector   :         0.00000000      0.00000000      0.00000000
 Magnitude:         0.00000000

 This molecular dipole moment is calculated with analytic integration



 =========================================
 Quadrupole Moment (Buckingham convention)  ***  (a.u.)  ***
 =========================================
  
      quad-xx        quad-xy        quad-xz        quad-yy        quad-yz        quad-zz
      0.00000000     0.00000000     0.00000000     0.00000000     0.00000000     0.00000000

 This molecular quadrupole moment is calculated with analytic integration



 =======================================================================
 Electrostatic potential at the Nuclei due to electrons and other nuclei
 =======================================================================
  
         Atom                  Potential
         ----                  ---------
     1)   Be                  8.40880298
 
 
 ========================
 No memory problems found
 ========================
 
 Maximum number of active allocate calls:         722
 
 *******************************************************************************

                             A D F   E X I T
 NORMAL TERMINATION



 =================
 Timing Statistics
 =================
  
 Total Used :                     CPU=        3.24      System=        0.11     Elapsed=        3.61

 Calls  Section                     ( Mean, Percentage )
 ---------------------------------------------------------------------------------------------------
     3  ><      ................      0.00    0.08             0.00    0.06             0.00    0.07
     1  INIT    ................      0.44   13.71             0.01    5.64             0.69   19.22
     1  GEOMET  ................      0.03    0.98             0.03   22.56             0.06    1.62
     1  FRAGM   ................      0.01    0.33             0.00    3.53             0.02    0.55
     1  INPUTA  ................      0.00    0.06             0.00    0.01             0.00    0.05
     1  ATDEN   ................      0.00    0.04             0.00    1.74             0.00    0.09
     1  MAINSY  ................      0.01    0.37             0.00    0.02             0.01    0.34
     1  SYMFIT  ................      0.00    0.03             0.00    0.00             0.00    0.03
     1  CORORT  ................      0.00    0.03             0.00    0.00             0.00    0.02
     1  SYMORB  ................      0.00    0.05             0.00    0.00             0.00    0.05
     1  FITINT  ................      0.01    0.29             0.00    0.45             0.01    0.27
     1  CLSMAT  ................      0.00    0.03             0.00    0.42             0.00    0.04
     1  ORTHON  ................      0.01    0.19             0.00    1.75             0.01    0.25
     1  GENPT   ................      0.02    0.53             0.00    0.00             0.02    0.48
     1  PTBAS   ................      0.00    0.14             0.00    2.20             0.01    0.20
     3  FOCKY   ................      0.71   65.89             0.02   52.83             0.73   60.82
     3  FOCKTR  ................      0.00    0.26             0.00    1.65             0.00    0.28
     3  SDIIS   ................      0.00    0.20             0.00    1.85             0.00    0.24
     1  COREPS  ................      0.51   15.82             0.00    3.49             0.52   14.31
     1  POPAN   ................      0.02    0.46             0.00    1.77             0.02    0.60
     1  DEBYE   ................      0.00    0.07             0.00    0.03             0.00    0.06
     1  EXIT PROCEDURE .........      0.01    0.44             0.00    0.00             0.01    0.40


 Currently Open Files (EXIT00)
 ====================

 Unit    Access Format  Status   Type       Ident (file)
 -------------------------------------------------------
   3      SEQ    FORM   TRANSP  NORMAL      LOGFILE
                                          ( logfile )


 Buffered I/O statistics
 =======================
 Memory available:                     67108864
 Number of records fitting in memory:     16131
 Input :   0.2% of                        37894  *4k bytes
 Output:   8.5% of                         4320  *4k bytes
 Records from serial files evicted:           0
                    others evicted:           0
 Hash table lookups:      83710 with          0 conflicts (  0.00%)

 ***************************************************************************************************
 (LOGFILE)
 <Mar23-2019> <10:00:01>  ADF 2018  RunTime: Mar23-2019 10:00:01  Nodes: 1  Procs: 1
 <Mar23-2019> <10:00:02>  Beryllium (QZ, all electron, 7S 3P 2D 2F)
 <Mar23-2019> <10:00:02>  RunType   : CREATE
 <Mar23-2019> <10:00:02>  Net Charge: 0 (Nuclei minus Electrons)
 <Mar23-2019> <10:00:02>  Symmetry  : ATOM
  Coordinates
    Atom         X           Y           Z   (Angstrom)
    1.Be        0.000000    0.000000    0.000000
 <Mar23-2019> <10:00:02>  >>>> CORORT
 <Mar23-2019> <10:00:02>  >>>> FITINT
 <Mar23-2019> <10:00:02>  >>>> CLSMAT
 <Mar23-2019> <10:00:02>  >>>> ORTHON
 <Mar23-2019> <10:00:02>  >>>> GENPT
 <Mar23-2019> <10:00:02>  Block Length=  81
 <Mar23-2019> <10:00:02>  >>>> PTBAS
 <Mar23-2019> <10:00:02>  >>>> CYCLE
 <Mar23-2019> <10:00:02>  CalcFitR12Fit
 <Mar23-2019> <10:00:02>  CalcFitCoeff
 <Mar23-2019> <10:00:02>              |Error|         MaxErr       Wt(A-DIIS)
 <Mar23-2019> <10:00:02>      1      0.00000000      0.00000000
 <Mar23-2019> <10:00:02>      2      2.25406261      1.76029794    100.0
 <Mar23-2019> <10:00:02>      3      0.17597269      0.11586142    100.0
 <Mar23-2019> <10:00:02>      4      0.02580101      0.01575549     14.9
 <Mar23-2019> <10:00:02>      5      0.00204706      0.00130946      0.3
 <Mar23-2019> <10:00:02>      6      0.00009981      0.00007403      0.0
 <Mar23-2019> <10:00:02>      7      0.00001298      0.00000831      0.0
 <Mar23-2019> <10:00:02>      8      0.00000107      0.00000069      0.0
 <Mar23-2019> <10:00:02>      9      0.00000001      0.00000001      0.0
 <Mar23-2019> <10:00:02>  SCF converged
 <Mar23-2019> <10:00:02>     10      0.00000000      0.00000000      0.0
 <Mar23-2019> <10:00:02>  >>>> POPAN
 <Mar23-2019> <10:00:02>  >>>> DEBYE
 <Mar23-2019> <10:00:02>  NORMAL TERMINATION
 <Mar23-2019> <10:00:02>  END
 <Mar23-2019> <10:00:03>  ADF 2018  RunTime: Mar23-2019 10:00:03  Nodes: 1  Procs: 4
 <Mar23-2019> <10:00:03>  Be
 <Mar23-2019> <10:00:03>  RunType   : SINGLE POINT
 <Mar23-2019> <10:00:03>  Net Charge: 0 (Nuclei minus Electrons)
 <Mar23-2019> <10:00:03>  Symmetry  : ATOM
 <Mar23-2019> <10:00:03>  >>>> FRAGM
  Coordinates
    Atom         X           Y           Z   (Angstrom)
    1.Be        0.000000    0.000000    0.000000
 <Mar23-2019> <10:00:03>  >>>> CORORT
 <Mar23-2019> <10:00:03>  >>>> FITINT
 <Mar23-2019> <10:00:03>  >>>> CLSMAT
 <Mar23-2019> <10:00:03>  >>>> ORTHON
 <Mar23-2019> <10:00:03>  >>>> GENPT
 <Mar23-2019> <10:00:03>  Block Length= 127
 <Mar23-2019> <10:00:03>  >>>> PTBAS
 <Mar23-2019> <10:00:03>  >>>> CYCLE
 <Mar23-2019> <10:00:04>  CalcFitR12Fit
 <Mar23-2019> <10:00:04>  CalcFitCoeff
 <Mar23-2019> <10:00:05>  Orbital Data from active fragment used
 <Mar23-2019> <10:00:05>              |Error|         MaxErr       Wt(A-DIIS)
 <Mar23-2019> <10:00:05>      1      0.00000460      0.00000275
 <Mar23-2019> <10:00:05>      2      0.00000042      0.00000025    100.0
 <Mar23-2019> <10:00:06>  SCF converged
 <Mar23-2019> <10:00:06>      3      0.00000035      0.00000022    100.0
 <Mar23-2019> <10:00:06>   Total energy        -14.57301106 a.u.
 <Mar23-2019> <10:00:06>  >>>> POPAN
 <Mar23-2019> <10:00:06>  >>>> DEBYE
 <Mar23-2019> <10:00:06>  NORMAL TERMINATION
 <Mar23-2019> <10:00:06>  END
