 
Create Be   file=TZ2P-Be
XC
  HartreeFock
End
  HartreeFock

 *******************************************************************************
 *                                                                             *
 *  -------------------------------------                                      *
 *   Amsterdam Density Functional  (ADF)         2018                          *
 *  -------------------------------------                                      *
 *                                               r70630 2018-11-24             *
 *                                                                             *
 *                                                                             *
 *                              =================                              *
 *                              |               |                              *
 *                              |     A D F     |                              *
 *                              |               |                              *
 *                              =================                              *
 *                                                                             *
 *                                                                             *
 *   Online information and documentation:  https://www.scm.com/support/       *
 *   E-mail:  support@scm.com   info@scm.com                                   *
 *                                                                             *
 *   Scientific publications using ADF results must be properly referenced     *
 *   See the User Manuals (or the web site) for recommended citations          *
 *   The terms and conditions of the End User License Agreement apply to       *
 *   the use of ADF, https://www.scm.com/license-terms/                        *
 *                                                                             *
 **********************  x86_64_linux_intel / intelmpi  ************************
 
 Licensed to: Mr. Vladimir Konjkov / Florida Institute of Technology / Melbourne / Florida / USA
 SCM User ID: u21173
  
 ADF 2018  RunTime: Mar23-2019 10:00:01  Nodes: 1  Procs: 1

 Temporary files are created in /tmp/kid_0.2078233046

 Beryllium (TZ2P)



 ===========================
 A T T A C H E D   F I L E S
 ===========================
  
 CREATE - Data File:    TZ2P-Be
                        Beryllium (TZ2P)



 ===============================
 M O D E L   P A R A M E T E R S
 ===============================
  
 DENSITY FUNCTIONAL POTENTIAL (scf)
    Hybrid:                            HARTREEFOCK                             == Not Default ==

 SPIN  (restricted / unrestr.)
    Molecule:                          Restricted                               

 OTHER ASPECTS
    Relativistic Corrections:          ---                                      

    Nuclear Charge Density Model:      Point Charge Nuclei                      
    Core Treatment:                    Frozen Orbital(s)                        

    Hyperfine or Zeeman Interaction:   ---                                      



 =====================================
 S Y M M E T R Y ,   E L E C T R O N S
 =====================================
  
 Symmetry: ATOM

 Irreducible Representations, including subspecies
 -------------------------------------------------
 S
 P:x  P:y  P:z
 D:z2  D:x2-y2  D:xy  D:xz  D:yz
 F:z3  F:z  F:xyz  F:z2x  F:z2y  F:x  F:y


 Configuration of Valence Electrons
 ==================================

          Occupation Numbers
          -------------------------------------------------
 S        2*2
 P        0
 D        0
 F        0
          -------------------------------------------------

 Total:   4

 Net Charge: 0 (Nuclei minus Electrons)

 Preset values for MO occupations will be applied through SCF cycle no. 1000000
 Thereafter, the program will assign electrons to MOs that are spatially
 similar to the occupied MOs in a "reference" cycle ("KeepOrbitals").
 The reference cycle is always the PREVIOUS cycle: it will evolve with
 the SCF procedure.



 ================================
 (Slater-type)  F U N C T I O N S  ***  (Basis and Fit)  ***
 ================================
  

 Atom Type    1  (Be)
 ==============

 Valence Basis Sets:  10
 -----------------------
   1 S    5.460000
   1 S    3.180000
   2 S    2.220000
   2 S    1.220000
   2 S    0.780000
   2 P    1.598000
   2 P    0.940000
   2 P    0.553000
   3 D    1.900000
   4 F    2.850000

 Charge Fitting Sets (for the computation of the Coulomb Potential):  19
 -----------------------------------------------------------------------
   1 S   10.920000
   1 S    7.210000
   2 S    8.800000
   2 S    6.390000
   3 S    6.780000
   3 S    4.630000
   3 S    3.170000
   3 S    2.170000
   3 S    1.480000
   2 P    7.680000
   2 P    3.870000
   2 P    1.950000
   3 P    1.480000
   3 D    4.440000
   3 D    2.560000
   3 D    1.480000
   4 F    5.000000
   4 F    3.500000
   5 G    4.000000


 BAS: List of all Elementary Cartesian Basis Functions
 =====================================================

 The numbering in the list below (to the right of the function characteristics) is referred
 to in print-outs of MO eigenvectors and Mulliken populations in the BAS representation
 (as contrasted to the SFO representation).

 Notes:
 1. The functions are characterized by a polynomial prefactor (powers of x,y,z and r) and
    an exponential decay factor alpha.
 2. Since the basis sets are specific for an atom TYPE, the individual functions occur on
    all atoms of that type.
 3. The word 'Core' in the left margin signals that it is a Core Function (CF) : not a
    degree of freedom in the valence set, but only used to ensure orthogonalization of
    the other valence basis functions on the frozen Core Orbitals.


 (power of) X  Y  Z  R     Alpha  on Atom
            ==========     =====     ==========

 Be                                   1
                                  ---------------------------------------------------------------------------
            0  0  0  0     5.460      1
            0  0  0  0     3.180      2
            0  0  0  1     2.220      3
            0  0  0  1     1.220      4
            0  0  0  1     0.780      5
            1  0  0  0     1.598      6
            0  1  0  0     1.598      7
            0  0  1  0     1.598      8
            1  0  0  0     0.940      9
            0  1  0  0     0.940     10
            0  0  1  0     0.940     11
            1  0  0  0     0.553     12
            0  1  0  0     0.553     13
            0  0  1  0     0.553     14
            2  0  0  0     1.900     15
            1  1  0  0     1.900     16
            1  0  1  0     1.900     17
            0  2  0  0     1.900     18
            0  1  1  0     1.900     19
            0  0  2  0     1.900     20
            3  0  0  0     2.850     21
            2  1  0  0     2.850     22
            2  0  1  0     2.850     23
            1  2  0  0     2.850     24
            1  1  1  0     2.850     25
            1  0  2  0     2.850     26
            0  3  0  0     2.850     27
            0  2  1  0     2.850     28
            0  1  2  0     2.850     29
            0  0  3  0     2.850     30

 Total number of charge fitting functions (nprimf)        74
 Total number of Cartesian basis functions (naos)         30
 Total number of Cartesian core functions  (ncos)          0



 BAS: List of all Elementary Cartesian Basis Functions
 =====================================================

 The numbering in the list below (to the right of the function characteristics) is referred
 to in print-outs of MO eigenvectors and Mulliken populations in the BAS representation
 (as contrasted to the SFO representation).

 Notes:
 1. The functions are characterized by a polynomial prefactor (powers of x,y,z and r) and
    an exponential decay factor alpha.
 2. Since the basis sets are specific for an atom TYPE, the individual functions occur on
    all atoms of that type.
 3. The word 'Core' in the left margin signals that it is a Core Function (CF) : not a
    degree of freedom in the valence set, but only used to ensure orthogonalization of
    the other valence basis functions on the frozen Core Orbitals.


 (power of) X  Y  Z  R     Alpha  on Atom
            ==========     =====     ==========

 Be                                   1
                                  ---------------------------------------------------------------------------
            0  0  0  0     5.460      1
            0  0  0  0     3.180      2
            0  0  0  1     2.220      3
            0  0  0  1     1.220      4
            0  0  0  1     0.780      5
            1  0  0  0     1.598      6
            0  1  0  0     1.598      7
            0  0  1  0     1.598      8
            1  0  0  0     0.940      9
            0  1  0  0     0.940     10
            0  0  1  0     0.940     11
            1  0  0  0     0.553     12
            0  1  0  0     0.553     13
            0  0  1  0     0.553     14
            2  0  0  0     1.900     15
            1  1  0  0     1.900     16
            1  0  1  0     1.900     17
            0  2  0  0     1.900     18
            0  1  1  0     1.900     19
            0  0  2  0     1.900     20
            3  0  0  0     2.850     21
            2  1  0  0     2.850     22
            2  0  1  0     2.850     23
            1  2  0  0     2.850     24
            1  1  1  0     2.850     25
            1  0  2  0     2.850     26
            0  3  0  0     2.850     27
            0  2  1  0     2.850     28
            0  1  2  0     2.850     29
            0  0  3  0     2.850     30
1
 ***************************************************************************************************



                                              ***********************
                                              *  T E C H N I C A L  *
                                              ***********************
  



 =============================================================
 P A R A L L E L I Z A T I O N  and  V E C T O R I Z A T I O N
 =============================================================
  
 Nr of parallel processes:                                1
 Maximum vector length in NumInt loops:                 128

 IO buffersize (Mb):                                     64.000000



 =====================
 S C F   U P D A T E S
 =====================
  
 Max. nr. of cycles:                               300
 Convergence criterion:                              0.0000000100
   secondary criterion:                              0.0000000100

 Mix parameter (when DIIS does not apply):           0.2000000000
 Special mix parameter for the first cycle:          1.0000000000
 Mixed ADIIS+DIIS will be used
    Max number of expansion vectors:                10
    Pure ADIIS when Max([F,P]) is above              0.1000000000
    Pure DIIS when Max([F,P]) is below               0.0010000000
 Automatic ElectronSmearing (in case of problematic SCF convergence) disabled



 =================
 P R E C I S I O N  ***  (General: NumInt, NeglectFunctionTails, ...)  ***
 =================
  

 NumInt:           Target precision:                12.0000000000
 -------           Initial precision:               10.0000000000
                   Min. precision (optimization):   10.0000000000

 Neglect Functions:          Basis functions:        0.1000000000E-13
 ------------------          Fit functions:          0.1000000000E-13



 ===========================
 L I N E A R   S C A L I N G
 ===========================
  

 Cut-off radii density fit:                        0.1000000000E-97
 Overlap cut-off criterion AO matrix elements:     0.1000000000E-97
 Cut-offs for Coulomb potential and fitted density:0.1000000000E-97
 Cut-off criterion for Coulomb multipole terms:    0.1000000000E-97
 Progressive Convergence parameter:                 0.000000000    
1
 ***************************************************************************************************



                                            ***************************
                                            *  C O M P U T A T I O N  *
                                            ***************************
  

 Number of elements of the density matrix on this node (used, total):       465       465



 ===========================================
 Numerical Integration : Fuzzy Cells (Becke)
 ===========================================
  
 Becke grid quality: VERYGOOD       
  
 Lebedev angular grid order:             min:  13 max:  41
 Nr. of radial points:                   min:  76 max:  76

 Total nr. of points:         76
 Nr. of blocks:                1
 Block length:                76
 Nr. of dummy points:          0


 Test of Precision of the Numerical Integration Grid
 ===================================================

 Integral of the Total Core Density:                   0.00000000000000



 ========================
 Density Fitting (zlmFit)
 ========================
  
 ZlmFit Fit Quality: VERYGOOD       
  
 Max L-expansion:                        min:   0 max:   0
 Nr. of radial interpolation points:     min: 200 max: 200



 ======================
 RI Hartree-Fock Scheme
 ======================
  
 Fit Set Quality     : NORMAL
 Integration Quality : NORMAL
 Threshold Quality   : NORMAL
 Response Quality    : DEFAULT
 Is Range Separated  :  F
 
 RIHartreeFock Dependency: number of modified vectors:           0



 =====
 S C F  ***  ScaSCF  ***
 =====
  

 CYCLE    1
 SCF Error: norm([F,P])=      0.000000000000, max([F,P])=      0.000000000000
 orbitals (Q,E):
 ---------------
 S :1...5            ( 2.00    -7.9963)  ( 2.00    -1.9956)  ( 0.00    -0.8644)  ( 0.00    -0.2956)
                     ( 0.00    13.6877)
 P :1...3            ( 0.00    -1.9718)  ( 0.00    -0.8855)  ( 0.00    -0.4886)
 D :1...1            ( 0.00    -0.7283)
 F :1...1            ( 0.00     1.2113)

 CYCLE    2
 SCF Error: norm([F,P])=      2.285736661399, max([F,P])=      1.426305371588
 orbitals (Q,E):
 ---------------
 S :1...3            ( 2.00    -3.9744)  ( 2.00    -0.1200)  ( 0.00     0.2108)
 P :1...1            ( 0.00     0.0793)
 D :1...1            ( 0.00     1.5425)
 F :1...1            ( 0.00     3.7559)

 CYCLE    3
  SDIIS (wt  0.000): -0.0249  1.0249
 A-DIIS (wt  1.000):  0.0000  1.0000
  DIIS coefficients:  0.0000  1.0000
 SCF Error: norm([F,P])=      0.170896592902, max([F,P])=      0.148276681588
 orbitals (Q,E):
 ---------------
 S :1...3            ( 2.00    -4.6724)  ( 2.00    -0.2979)  ( 0.00     0.2161)
 P :1...1            ( 0.00     0.0474)
 D :1...1            ( 0.00     1.3161)
 F :1...1            ( 0.00     3.4769)

 CYCLE    4
  SDIIS (wt  0.793): -0.1551  1.1551
 A-DIIS (wt  0.207):  0.0000  1.0000
  DIIS coefficients: -0.1230  1.1230
 SCF Error: norm([F,P])=      0.023939827653, max([F,P])=      0.021497832337
 orbitals (Q,E):
 ---------------
 S :1...3            ( 2.00    -4.7274)  ( 2.00    -0.3081)  ( 0.00     0.2130)
 P :1...1            ( 0.00     0.0409)
 D :1...1            ( 0.00     1.2895)
 F :1...1            ( 0.00     3.4443)

 CYCLE    5
  SDIIS (wt  0.998):  0.0387 -0.3355  1.2968
 A-DIIS (wt  0.002):  0.0000  0.0000  1.0000
  DIIS coefficients:  0.0386 -0.3347  1.2961
 SCF Error: norm([F,P])=      0.001946584386, max([F,P])=      0.001235730728
 orbitals (Q,E):
 ---------------
 S :1...3            ( 2.00    -4.7330)  ( 2.00    -0.3092)  ( 0.00     0.2123)
 P :1...1            ( 0.00     0.0398)
 D :1...1            ( 0.00     1.2860)
 F :1...1            ( 0.00     3.4402)

 CYCLE    6
  SDIIS (wt  1.000): -0.0025  0.0236 -0.1391  1.1179
  DIIS coefficients: -0.0025  0.0236 -0.1391  1.1179
 SCF Error: norm([F,P])=      0.000108354021, max([F,P])=      0.000070637912
 orbitals (Q,E):
 ---------------
 S :1...3            ( 2.00    -4.7334)  ( 2.00    -0.3093)  ( 0.00     0.2123)
 P :1...1            ( 0.00     0.0397)
 D :1...1            ( 0.00     1.2858)
 F :1...1            ( 0.00     3.4400)

 CYCLE    7
  SDIIS (wt  1.000): -0.0000  0.0004 -0.0031  0.0254  0.9774
  DIIS coefficients: -0.0000  0.0004 -0.0031  0.0254  0.9774
 SCF Error: norm([F,P])=      0.000000819429, max([F,P])=      0.000000526275
 orbitals (Q,E):
 ---------------
 S :1...3            ( 2.00    -4.7333)  ( 2.00    -0.3093)  ( 0.00     0.2123)
 P :1...1            ( 0.00     0.0397)
 D :1...1            ( 0.00     1.2858)
 F :1...1            ( 0.00     3.4400)

 CYCLE    8
  SDIIS (wt  1.000): -0.0000 -0.0000  0.0000 -0.0005 -0.0612  1.0617
  DIIS coefficients: -0.0000 -0.0000  0.0000 -0.0005 -0.0612  1.0617
 SCF Error: norm([F,P])=      0.000000041077, max([F,P])=      0.000000032068
 orbitals (Q,E):
 ---------------
 S :1...3            ( 2.00    -4.7333)  ( 2.00    -0.3093)  ( 0.00     0.2123)
 P :1...1            ( 0.00     0.0397)
 D :1...1            ( 0.00     1.2858)
 F :1...1            ( 0.00     3.4400)

 CYCLE    9
  SDIIS (wt  1.000):  0.0000 -0.0000  0.0000  0.0037 -0.0687  1.0650
  DIIS coefficients:  0.0000 -0.0000  0.0000  0.0037 -0.0687  1.0650
 SCF Error: norm([F,P])=      0.000000000879, max([F,P])=      0.000000000595
 orbitals (Q,E):
 ---------------
 S :1...3            ( 2.00    -4.7333)  ( 2.00    -0.3093)  ( 0.00     0.2123)
 P :1...1            ( 0.00     0.0397)
 D :1...1            ( 0.00     1.2858)
 F :1...1            ( 0.00     3.4400)

 SCF CONVERGED

 CYCLE   10
1
 ***************************************************************************************************



                                                *******************
                                                *  R E S U L T S  *
                                                *******************
  
  
 Hartree-Fock exchange energy:   -2.66587412364336     
 *** Setting up for NEW gradients in Focky
 *** Using FIT density in Focky

 Orbital Energies, per Irrep and Spin:
 ======================================
                        Occup              E (au)              E (eV)       Diff (eV) with prev. cycle
                        -----      --------------------        ------       --------------------------
 S
               1        2.000     -0.47333468154061E+01      -128.801              -1.09E-09
               2        2.000     -0.30931895461969E+00        -8.417              -2.90E-10
               3        0.000      0.21231267448799E+00         5.777
               4        0.000      0.18690341835183E+01        50.859
               5        0.000      0.18577045000798E+02       505.507
 P
               1        0.000      0.39730427615448E-01         1.081
               2        0.000      0.20551714027762E+00         5.592
               3        0.000      0.10400400675721E+01        28.301
 D
               1        0.000      0.12858407489486E+01        34.990
 F
               1        0.000      0.34399771807162E+01        93.607
  
 HOMO :        2 S                -0.30931895461969E+00
 LUMO :        1 P                 0.39730427615448E-01
  


 Orbital Energies, all Irreps
 ========================================

 Irrep        no.  (spin)   Occup              E (au)                E (eV)
 ---------------------------------------------------------------------------
 S             1             2.00       -0.47333468154061E+01      -128.8009
 S             2             2.00       -0.30931895461969E+00        -8.4170
 P             1             0.00        0.39730427615448E-01         1.0811
 P             2             0.00        0.20551714027762E+00         5.5924
 S             3             0.00        0.21231267448799E+00         5.7773
 P             3             0.00        0.10400400675721E+01        28.3009
 D             1             0.00        0.12858407489486E+01        34.9895
 S             4             0.00        0.18690341835183E+01        50.8590
 F             1             0.00        0.34399771807162E+01        93.6065
 S             5             0.00        0.18577045000798E+02       505.5071


 All Electron Calculation, thus no Orbital Energies of the Core Orbitals are calculated



 =======================================
 M U L L I K E N   P O P U L A T I O N S
 =======================================
  
 The survey below gives for each atom:
 a) the total charge (Z minus electrons)
 b) the net spin polarization (nr of electrons spin-A minus spin-B)
 c) for each spin the atomic electron valence density (integrated) per L-value.

 Atom              Charge    Spin density          S         P         D         F
 ----              ------    ------------       ------    ------    ------    ------
 1 Be              0.0000                       4.0000    0.0000    0.0000    0.0000

 Populations of individual BAS functions
 ----------------------------------------
 1 Be           0.3795  1.6625 -0.1501  1.1804  0.9278  0.0000  0.0000  0.0000  0.0000  0.0000
                0.0000  0.0000  0.0000  0.0000  0.0000  0.0000  0.0000  0.0000  0.0000  0.0000
                0.0000  0.0000  0.0000  0.0000  0.0000  0.0000  0.0000  0.0000  0.0000  0.0000

 Gross Charges per Atom (Z minus electrons)
 ==========================================
             0.0000
 Net Total:  0.00000000



 =======================================================================
 Electrostatic potential at the Nuclei due to electrons and other nuclei
 =======================================================================
  
         Atom                  Potential
         ----                  ---------
     1)   Be                  8.40734321
 
 
 ========================
 No memory problems found
 ========================
 
 Maximum number of active allocate calls:         454
 
 *******************************************************************************

                             A D F   E X I T
 NORMAL TERMINATION



 =================
 Timing Statistics
 =================
  
 Total Used :                     CPU=        0.66      System=        0.06     Elapsed=        2.12

 Calls  Section                     ( Mean, Percentage )
 ---------------------------------------------------------------------------------------------------
     3  ><      ................      0.00    0.41             0.00    2.39             0.00    0.45
     1  INIT    ................      0.03    4.76             0.01   14.26             1.31   61.71
     1  GEOMET  ................      0.03    3.92             0.03   50.55             0.09    4.46
     1  INPUTA  ................      0.00    0.47             0.00    0.86             0.01    0.24
     1  MAINSY  ................      0.01    1.61             0.00    1.98             0.02    1.04
     1  SYMFIT  ................      0.00    0.01             0.00    2.43             0.00    0.12
     1  CORORT  ................      0.00    0.11             0.00    0.28             0.00    0.04
     1  SYMORB  ................      0.00    0.10             0.00    0.08             0.00    0.04
     1  FITINT  ................      0.01    1.16             0.00    0.42             0.01    0.56
     1  CLSMAT  ................      0.00    0.19             0.00    0.19             0.00    0.08
     1  ORTHON  ................      0.01    0.83             0.00    0.65             0.01    0.57
     1  GENPT   ................      0.01    2.06             0.00    1.66             0.02    0.89
     1  PTBAS   ................      0.01    0.78             0.00    0.00             0.01    0.45
    10  FOCKY   ................      0.05   72.55             0.00   15.54             0.05   24.93
    10  FOCKTR  ................      0.00    1.17             0.00    0.24             0.00    0.39
    10  SDIIS   ................      0.00    2.99             0.00    6.24             0.00    1.55
     1  COREPS  ................      0.02    3.28             0.00    2.20             0.03    1.20
     1  POPAN   ................      0.01    1.10             0.00    0.00             0.01    0.43
     1  DEBYE   ................      0.00    0.24             0.00    0.00             0.00    0.15
     1  EXIT PROCEDURE .........      0.01    2.27             0.00    0.00             0.02    0.72


 Currently Open Files (EXIT00)
 ====================

 Unit    Access Format  Status   Type       Ident (file)
 -------------------------------------------------------
   3      SEQ    FORM   TRANSP  NORMAL      LOGFILE
                                          ( logfile )


 Buffered I/O statistics
 =======================
 Memory available:                     67108864
 Number of records fitting in memory:     16131
 Input :   0.1% of                        33645  *4k bytes
 Output:  12.5% of                         1629  *4k bytes
 Records from serial files evicted:           0
                    others evicted:           0
 Hash table lookups:      68016 with          0 conflicts (  0.00%)

 ***************************************************************************************************
 (LOGFILE)
 <Mar23-2019> <10:00:01>  ADF 2018  RunTime: Mar23-2019 10:00:01  Nodes: 1  Procs: 1
 <Mar23-2019> <10:00:01>  Beryllium (TZ2P)
 <Mar23-2019> <10:00:02>  RunType   : CREATE
 <Mar23-2019> <10:00:02>  Net Charge: 0 (Nuclei minus Electrons)
 <Mar23-2019> <10:00:02>  Symmetry  : ATOM
  Coordinates
    Atom         X           Y           Z   (Angstrom)
    1.Be        0.000000    0.000000    0.000000
 <Mar23-2019> <10:00:02>  >>>> CORORT
 <Mar23-2019> <10:00:02>  >>>> FITINT
 <Mar23-2019> <10:00:02>  >>>> CLSMAT
 <Mar23-2019> <10:00:02>  >>>> ORTHON
 <Mar23-2019> <10:00:02>  >>>> GENPT
 <Mar23-2019> <10:00:02>  Block Length=  76
 <Mar23-2019> <10:00:02>  >>>> PTBAS
 <Mar23-2019> <10:00:02>  >>>> CYCLE
 <Mar23-2019> <10:00:02>  CalcFitR12Fit
 <Mar23-2019> <10:00:02>  CalcFitCoeff
 <Mar23-2019> <10:00:02>              |Error|         MaxErr       Wt(A-DIIS)
 <Mar23-2019> <10:00:02>      1      0.00000000      0.00000000
 <Mar23-2019> <10:00:02>      2      2.28573666      1.42630537
 <Mar23-2019> <10:00:02>      3      0.17089659      0.14827668    100.0
 <Mar23-2019> <10:00:02>      4      0.02393983      0.02149783     20.7
 <Mar23-2019> <10:00:02>      5      0.00194658      0.00123573      0.2
 <Mar23-2019> <10:00:02>      6      0.00010835      0.00007064      0.0
 <Mar23-2019> <10:00:02>      7      0.00000082      0.00000053      0.0
 <Mar23-2019> <10:00:02>      8      0.00000004      0.00000003      0.0
 <Mar23-2019> <10:00:02>      9      0.00000000      0.00000000      0.0
 <Mar23-2019> <10:00:02>  SCF converged
 <Mar23-2019> <10:00:02>     10      0.00000000      0.00000000      0.0
 <Mar23-2019> <10:00:02>  >>>> POPAN
 <Mar23-2019> <10:00:02>  >>>> DEBYE
 <Mar23-2019> <10:00:02>  NORMAL TERMINATION
 <Mar23-2019> <10:00:02>  END


 Parallel Execution: Process Information
 ==============================================================================
 Rank   Node Name                              NodeID   MyNodeRank  NodeMaster
    0   vladimir-kubuntu                          0          0          0
    1   vladimir-kubuntu                          0          1         -1
    2   vladimir-kubuntu                          0          2         -1
    3   vladimir-kubuntu                          0          3         -1
 ==============================================================================


May use up to 7569MB of RAM as shared memory on node 0
 
Title Be

ATOMS
 Be        0.000000000000      0.000000000000      0.000000000000
END

CHARGE 0 0

NUMERICALQUALITY excellent

XC
  HartreeFock
END

EPRINT
  SFO NOEIG NOOVL NOORBPOP
  SCF NOPOP
END

NOPRINT BAS FUNCTIONS

TOTALENERGY
NOTOTEN

Fragments
Be t21.Be
End

 *******************************************************************************
 *                                                                             *
 *  -------------------------------------                                      *
 *   Amsterdam Density Functional  (ADF)         2018                          *
 *  -------------------------------------                                      *
 *                                               r70630 2018-11-24             *
 *                                                                             *
 *                                                                             *
 *                              =================                              *
 *                              |               |                              *
 *                              |     A D F     |                              *
 *                              |               |                              *
 *                              =================                              *
 *                                                                             *
 *                                                                             *
 *   Online information and documentation:  https://www.scm.com/support/       *
 *   E-mail:  support@scm.com   info@scm.com                                   *
 *                                                                             *
 *   Scientific publications using ADF results must be properly referenced     *
 *   See the User Manuals (or the web site) for recommended citations          *
 *   The terms and conditions of the End User License Agreement apply to       *
 *   the use of ADF, https://www.scm.com/license-terms/                        *
 *                                                                             *
 **********************  x86_64_linux_intel / intelmpi  ************************
 
 Licensed to: Mr. Vladimir Konjkov / Florida Institute of Technology / Melbourne / Florida / USA
 SCM User ID: u21173
  
 ADF 2018  RunTime: Mar23-2019 10:00:03  Nodes: 1  Procs: 4

 Temporary files are created in /tmp/kid_0.643991663


Communication costs MPI_COMM_WORLD:      0.311 usec per message,   0.0040 usec per 8-byte item
Communication costs for intra-node:      0.298 usec per message,   0.0039 usec per 8-byte item

 Be



 ===========================
 A T T A C H E D   F I L E S
 ===========================
  



 ===============================
 M O D E L   P A R A M E T E R S
 ===============================
  
 DENSITY FUNCTIONAL POTENTIAL (scf)
    Hybrid:                            HARTREEFOCK                             == Not Default ==

 SPIN  (restricted / unrestr.)
    Molecule:                          Restricted                               
    Fragments:                         Restricted                               

 OTHER ASPECTS
    Relativistic Corrections:          ---                                      

    Nuclear Charge Density Model:      Point Charge Nuclei                      
    Core Treatment:                    Frozen Orbital(s)                        

    Hyperfine or Zeeman Interaction:   ---                                      


 Fragment File(s)
 ----------------
 Be:
         file : t21.Be
         jobid: ADF 2018  RunTime: Mar23-2019 10:00:01  Nodes: 1  Procs: 1
         title: Beryllium (TZ2P)



                                        ************************************
                                        *  R U N   T Y P E : SINGLE POINT  *
                                        ************************************
  



 ===============
 G E O M E T R Y  ***  Single Atom  ***
 ===============
  

 ATOMS
 =====                            X Y Z                    CHARGE
                                (Angstrom)             Nucl     +Core       At.Mass
                       --------------------------    ----------------       -------
    1  Be              0.0000    0.0000    0.0000      4.00      4.00        9.0122


 FRAGMENTS
 =========                                     Atoms in this Fragment     Cart. coord.s (Angstrom)
                                               -------------------------------------------------------
    1  Be                                                1  Be           0.0000    0.0000    0.0000



 =====================================
 S Y M M E T R Y ,   E L E C T R O N S
 =====================================
  
 Symmetry: ATOM

 Irreducible Representations, including subspecies
 -------------------------------------------------
 S
 P:x  P:y  P:z
 D:z2  D:x2-y2  D:xy  D:xz  D:yz
 F:z3  F:z  F:xyz  F:z2x  F:z2y  F:x  F:y


 Configuration of Valence Electrons
 ==================================
 ( determined in the SCF procedure )

 Total:   4

 Net Charge: 0 (Nuclei minus Electrons)

 Aufbau principle for MO occupations will be applied through SCF cycle no.     150
 Thereafter, the program will assign electrons to MOs that are spatially
 similar to the occupied MOs in a "reference" cycle ("KeepOrbitals").
 The reference cycle is always the PREVIOUS cycle: it will evolve with
 the SCF procedure.



 =======
 S F O s  ***  (Symmetrized Fragment Orbitals)  ***
 =======
  
 SFOs are linear combinations of (valence) Fragment Orbitals (FOs), such that the SFOs transform as the
 irreducible representations of the (molecular) symmetry group. Each SFO is therefore characterized by
 an irrep of the molecule and by a few (or only one) generating FOs.
 The SFOs constitute a symmetry-adapted basis for the Fock matrix. The MO eigenvector coefficients in
 this basis provide a direct interpretation of the MOs in terms of Frontier Orbital Theory.

 The SFOs are combined with auxiliary Core Functions (CFs) to ensure orthogonalization on the (frozen)
 Core Orbitals (COs). The Core-orthogonalized SFOs (CSFOs) constitute the true Fock basis.

 The FOs, and hence also the (C)SFOs are combinations of the elementary basis functions (BAS). The basis
 functions that participate in the description of the SFOs depend on the irrep. The indices of the
 involved functions are printed below for each irrep.
 (The complete list of primitive basis functions is printed in another section)

 Total nr. of (C)SFOs (summation over all irreps) :    26

 NOTE: a (C)SFO that is defined as a combination of more than one FO is usually NOT normalized.



                                       === S ===
 Nr. of SFOs :    5
 Cartesian basis functions that participate in this irrep (total number =     5) :
      1     2     3     4     5

    SFO  (index         Fragment          Generating    Expansion in Fragment Orbitals
  indx  incl.CFs)   Occup   Orb.Energy   FragmentType  Coeff.   Orbital     on Fragment
 --------------------------------------------------------------------------------------
     1       1      2.000      -4.733 au  Be            1.00      1 S               1
                        (    -128.801 eV)
     2       2      2.000      -0.309 au  Be            1.00      2 S               1
                        (      -8.417 eV)
     3       3       --         0.212 au  Be            1.00      3 S               1
                        (       5.777 eV)
     4       4       --         1.869 au  Be            1.00      4 S               1
                        (      50.859 eV)
     5       5       --        18.577 au  Be            1.00      5 S               1
                        (     505.507 eV)



                                       === P:x ===
 Nr. of SFOs :    3
 Cartesian basis functions that participate in this irrep (total number =     3) :
      6     9    12

    SFO  (index         Fragment          Generating    Expansion in Fragment Orbitals
  indx  incl.CFs)   Occup   Orb.Energy   FragmentType  Coeff.   Orbital     on Fragment
 --------------------------------------------------------------------------------------
     1       1       --         0.040 au  Be            1.00      1 P:x             1
                        (       1.081 eV)
     2       2       --         0.206 au  Be            1.00      2 P:x             1
                        (       5.592 eV)
     3       3       --         1.040 au  Be            1.00      3 P:x             1
                        (      28.301 eV)



                                       === P:y ===
 Nr. of SFOs :    3
 Cartesian basis functions that participate in this irrep (total number =     3) :
      7    10    13

    SFO  (index         Fragment          Generating    Expansion in Fragment Orbitals
  indx  incl.CFs)   Occup   Orb.Energy   FragmentType  Coeff.   Orbital     on Fragment
 --------------------------------------------------------------------------------------
     1       1       --         0.040 au  Be            1.00      1 P:y             1
                        (       1.081 eV)
     2       2       --         0.206 au  Be            1.00      2 P:y             1
                        (       5.592 eV)
     3       3       --         1.040 au  Be            1.00      3 P:y             1
                        (      28.301 eV)



                                       === P:z ===
 Nr. of SFOs :    3
 Cartesian basis functions that participate in this irrep (total number =     3) :
      8    11    14

    SFO  (index         Fragment          Generating    Expansion in Fragment Orbitals
  indx  incl.CFs)   Occup   Orb.Energy   FragmentType  Coeff.   Orbital     on Fragment
 --------------------------------------------------------------------------------------
     1       1       --         0.040 au  Be            1.00      1 P:z             1
                        (       1.081 eV)
     2       2       --         0.206 au  Be            1.00      2 P:z             1
                        (       5.592 eV)
     3       3       --         1.040 au  Be            1.00      3 P:z             1
                        (      28.301 eV)



                                       === D:z2 ===
 Nr. of SFOs :    1
 Cartesian basis functions that participate in this irrep (total number =     3) :
     15    18    20

    SFO  (index         Fragment          Generating    Expansion in Fragment Orbitals
  indx  incl.CFs)   Occup   Orb.Energy   FragmentType  Coeff.   Orbital     on Fragment
 --------------------------------------------------------------------------------------
     1       1       --         1.286 au  Be            1.00      1 D:z2            1
                        (      34.990 eV)



                                       === D:x2-y2 ===
 Nr. of SFOs :    1
 Cartesian basis functions that participate in this irrep (total number =     2) :
     15    18

    SFO  (index         Fragment          Generating    Expansion in Fragment Orbitals
  indx  incl.CFs)   Occup   Orb.Energy   FragmentType  Coeff.   Orbital     on Fragment
 --------------------------------------------------------------------------------------
     1       1       --         1.286 au  Be            1.00      1 D:x2-y2         1
                        (      34.990 eV)



                                       === D:xy ===
 Nr. of SFOs :    1
 Cartesian basis functions that participate in this irrep (total number =     1) :
     16

    SFO  (index         Fragment          Generating    Expansion in Fragment Orbitals
  indx  incl.CFs)   Occup   Orb.Energy   FragmentType  Coeff.   Orbital     on Fragment
 --------------------------------------------------------------------------------------
     1       1       --         1.286 au  Be            1.00      1 D:xy            1
                        (      34.990 eV)



                                       === D:xz ===
 Nr. of SFOs :    1
 Cartesian basis functions that participate in this irrep (total number =     1) :
     17

    SFO  (index         Fragment          Generating    Expansion in Fragment Orbitals
  indx  incl.CFs)   Occup   Orb.Energy   FragmentType  Coeff.   Orbital     on Fragment
 --------------------------------------------------------------------------------------
     1       1       --         1.286 au  Be            1.00      1 D:xz            1
                        (      34.990 eV)



                                       === D:yz ===
 Nr. of SFOs :    1
 Cartesian basis functions that participate in this irrep (total number =     1) :
     19

    SFO  (index         Fragment          Generating    Expansion in Fragment Orbitals
  indx  incl.CFs)   Occup   Orb.Energy   FragmentType  Coeff.   Orbital     on Fragment
 --------------------------------------------------------------------------------------
     1       1       --         1.286 au  Be            1.00      1 D:yz            1
                        (      34.990 eV)



                                       === F:z3 ===
 Nr. of SFOs :    1
 Cartesian basis functions that participate in this irrep (total number =     3) :
     23    28    30

    SFO  (index         Fragment          Generating    Expansion in Fragment Orbitals
  indx  incl.CFs)   Occup   Orb.Energy   FragmentType  Coeff.   Orbital     on Fragment
 --------------------------------------------------------------------------------------
     1       1       --         3.440 au  Be            1.00      1 F:z3            1
                        (      93.607 eV)



                                       === F:z ===
 Nr. of SFOs :    1
 Cartesian basis functions that participate in this irrep (total number =     2) :
     23    28

    SFO  (index         Fragment          Generating    Expansion in Fragment Orbitals
  indx  incl.CFs)   Occup   Orb.Energy   FragmentType  Coeff.   Orbital     on Fragment
 --------------------------------------------------------------------------------------
     1       1       --         3.440 au  Be            1.00      1 F:z             1
                        (      93.607 eV)



                                       === F:xyz ===
 Nr. of SFOs :    1
 Cartesian basis functions that participate in this irrep (total number =     1) :
     25

    SFO  (index         Fragment          Generating    Expansion in Fragment Orbitals
  indx  incl.CFs)   Occup   Orb.Energy   FragmentType  Coeff.   Orbital     on Fragment
 --------------------------------------------------------------------------------------
     1       1       --         3.440 au  Be            1.00      1 F:xyz           1
                        (      93.607 eV)



                                       === F:z2x ===
 Nr. of SFOs :    1
 Cartesian basis functions that participate in this irrep (total number =     3) :
     21    24    26

    SFO  (index         Fragment          Generating    Expansion in Fragment Orbitals
  indx  incl.CFs)   Occup   Orb.Energy   FragmentType  Coeff.   Orbital     on Fragment
 --------------------------------------------------------------------------------------
     1       1       --         3.440 au  Be            1.00      1 F:z2x           1
                        (      93.607 eV)



                                       === F:z2y ===
 Nr. of SFOs :    1
 Cartesian basis functions that participate in this irrep (total number =     3) :
     22    27    29

    SFO  (index         Fragment          Generating    Expansion in Fragment Orbitals
  indx  incl.CFs)   Occup   Orb.Energy   FragmentType  Coeff.   Orbital     on Fragment
 --------------------------------------------------------------------------------------
     1       1       --         3.440 au  Be            1.00      1 F:z2y           1
                        (      93.607 eV)



                                       === F:x ===
 Nr. of SFOs :    1
 Cartesian basis functions that participate in this irrep (total number =     2) :
     21    24

    SFO  (index         Fragment          Generating    Expansion in Fragment Orbitals
  indx  incl.CFs)   Occup   Orb.Energy   FragmentType  Coeff.   Orbital     on Fragment
 --------------------------------------------------------------------------------------
     1       1       --         3.440 au  Be            1.00      1 F:x             1
                        (      93.607 eV)



                                       === F:y ===
 Nr. of SFOs :    1
 Cartesian basis functions that participate in this irrep (total number =     2) :
     22    27

    SFO  (index         Fragment          Generating    Expansion in Fragment Orbitals
  indx  incl.CFs)   Occup   Orb.Energy   FragmentType  Coeff.   Orbital     on Fragment
 --------------------------------------------------------------------------------------
     1       1       --         3.440 au  Be            1.00      1 F:y             1
                        (      93.607 eV)

 Total number of charge fitting functions (nprimf)        74
 Total number of Cartesian basis functions (naos)         30
 Total number of Cartesian core functions  (ncos)          0

1
 ***************************************************************************************************



                                              ***********************
                                              *  T E C H N I C A L  *
                                              ***********************
  



 =============================================================
 P A R A L L E L I Z A T I O N  and  V E C T O R I Z A T I O N
 =============================================================
  
 Nr of parallel processes:                                4
 Maximum vector length in NumInt loops:                 128

 IO buffersize (Mb):                                     64.000000



 =====================
 S C F   U P D A T E S
 =====================
  
 Max. nr. of cycles:                               300
 Convergence criterion:                              0.0000010000
   secondary criterion:                              0.0010000000

 Mix parameter (when DIIS does not apply):           0.2000000000
 Mixed ADIIS+DIIS will be used
    Max number of expansion vectors:                10
    Pure ADIIS when Max([F,P]) is above              0.1000000000
    Pure DIIS when Max([F,P]) is below               0.0010000000
 Automatic ElectronSmearing (in case of problematic SCF convergence) disabled



 =================
 P R E C I S I O N  ***  (General: NumInt, NeglectFunctionTails, ...)  ***
 =================
  

 NumInt:           Target precision:                10.0000000000
 -------           Initial precision:               10.0000000000
                   Min. precision (optimization):   10.0000000000

 Neglect Functions:          Basis functions:        0.1000000000E-11
 ------------------          Fit functions:          0.1000000000E-11



 ===========================
 L I N E A R   S C A L I N G
 ===========================
  

 Cut-off radii density fit:                        0.1000000000E-13
 Overlap cut-off criterion AO matrix elements:     0.1000000000E-11
 Cut-offs for Coulomb potential and fitted density:0.1000000000E-13
 Cut-off criterion for Coulomb multipole terms:    0.1000000000E-13
 Progressive Convergence parameter:                 0.000000000    
1
 ***************************************************************************************************



                                            ***************************
                                            *  C O M P U T A T I O N  *
                                            ***************************
  

 Number of elements of the density matrix on this node (used, total):       465       465



 ===========================================
 Numerical Integration : Fuzzy Cells (Becke)
 ===========================================
  
 Becke grid quality: EXCELLENT      
  
 Lebedev angular grid order:             min:  17 max:  47
 Nr. of radial points:                   min: 120 max: 120

 Total nr. of points:        120
 Nr. of blocks:                1
 Block length:               120
 Nr. of dummy points:          0


 Test of Precision of the Numerical Integration Grid
 ===================================================

 Integral of the Total Core Density:                   0.00000000000000



 ========================
 Density Fitting (zlmFit)
 ========================
  
 ZlmFit Fit Quality: EXCELLENT      
  
 Max L-expansion:                        min:  15 max:  15
 Nr. of radial interpolation points:     min: 280 max: 280



 ======================
 RI Hartree-Fock Scheme
 ======================
  
 Fit Set Quality     : EXCELLENT
 Integration Quality : EXCELLENT
 Threshold Quality   : EXCELLENT
 Response Quality    : DEFAULT
 Is Range Separated  :  F
 
 RIHartreeFock Dependency: number of modified vectors:           0



 =====
 S C F  ***  ScaSCF  ***
 =====
  
 Initial density matrix is calculated as sum of fragments

 CYCLE    1
 Orbital Data from active fragment used
 SCF Error: norm([F,P])=      0.000014805912, max([F,P])=      0.000013214295
 orbitals (Q,E):
 ---------------
 S :1...5            ( 2.00    -4.7333)  ( 2.00    -0.3093)  ( 0.00     0.2123)  ( 0.00     1.8690)
                     ( 0.00    18.5765)
 P :1...3            ( 0.00     0.0397)  ( 0.00     0.2055)  ( 0.00     1.0400)
 D :1...1            ( 0.00     1.2858)
 F :1...1            ( 0.00     3.4399)

 CYCLE    2
 SCF Error: norm([F,P])=      0.000000734150, max([F,P])=      0.000000567874
 orbitals (Q,E):
 ---------------
 S :1...3            ( 2.00    -4.7333)  ( 2.00    -0.3093)  ( 0.00     0.2123)
 P :1...1            ( 0.00     0.0397)
 D :1...1            ( 0.00     1.2858)
 F :1...1            ( 0.00     3.4399)

 SCF CONVERGED

 CYCLE    3
1
 ***************************************************************************************************



                                                *******************
                                                *  R E S U L T S  *
                                                *******************
  
  
 Hartree-Fock exchange energy:   -2.66587503031001     
 *** Setting up for NEW gradients in Focky
 *** Using FIT density in Focky

 Orbital Energies, per Irrep and Spin:
 ======================================
                        Occup              E (au)              E (eV)       Diff (eV) with prev. cycle
                        -----      --------------------        ------       --------------------------
 S
               1        2.000     -0.47333458429743E+01      -128.801              -3.16E-06
               2        2.000     -0.30931775033854E+00        -8.417              -4.09E-07
               3        0.000      0.21231165076160E+00         5.777
               4        0.000      0.18690176701168E+01        50.859
               5        0.000      0.18576512545881E+02       505.493
 P
               1        0.000      0.39728416035452E-01         1.081
               2        0.000      0.20549129326617E+00         5.592
               3        0.000      0.10399940119557E+01        28.300
 D
               1        0.000      0.12858266985673E+01        34.989
 F
               1        0.000      0.34398825986764E+01        93.604
  
 HOMO :        2 S                -0.30931775033854E+00
 LUMO :        1 P                 0.39728416035452E-01
  


 Orbital Energies, all Irreps
 ========================================

 Irrep        no.  (spin)   Occup              E (au)                E (eV)
 ---------------------------------------------------------------------------
 S             1             2.00       -0.47333458429743E+01      -128.8009
 S             2             2.00       -0.30931775033854E+00        -8.4170
 P             1             0.00        0.39728416035452E-01         1.0811
 P             2             0.00        0.20549129326617E+00         5.5917
 S             3             0.00        0.21231165076160E+00         5.7773
 P             3             0.00        0.10399940119557E+01        28.2997
 D             1             0.00        0.12858266985673E+01        34.9891
 S             4             0.00        0.18690176701168E+01        50.8586
 F             1             0.00        0.34398825986764E+01        93.6040
 S             5             0.00        0.18576512545881E+02       505.4926


 All Electron Calculation, thus no Orbital Energies of the Core Orbitals are calculated



 =======================
 T O T A L   E N E R G Y  ***  (contributions)  ***
 =======================
  

*** Note ***

The requirements to the integration accuracy are somewhat higher than for bond energies.
One can expect an accuracy of roughly (accint-2) decimal places, where accint is the
general integration accuracy parameter.
The Coulomb energy is the sum of the Hartree energy (electron-electron Coulomb interaction)
and the nuclear-electron attraction energy. It includes the correction for the first-order
fit error in the Hartree energy.
The potential energy is the sum of the nuclear repulsion energy, the Coulomb energy,
and the exchange-correlation energy.

Kinetic energy           =           14.569052304690

Nuclear repulsion energy =            0.000000000000
Coulomb energy           =          -26.476012070342
XC energy                =           -2.665875030310
Total potential energy   =          -29.141887100652

----------------------------------------------------
Total energy             =          -14.572834795962
Virial theorem           =            2.000259625073
----------------------------------------------------

 Gross Charges per Atom (Z minus electrons)
 ==========================================
             0.0000
 Net Total:  0.00000000



 =================================================================
 M U L T I P O L E   D E R I V E D   C H A R G E   A N A L Y S I S
 =================================================================

 This charge analysis uses the atomic multipoles (obtained from the fitted density) up to some level X,
 and reconstructs these multipoles exactly (up to level X) by distributing charges over all atoms.
 This is achieved by using Lagrange multipliers and a weight function to keep the multipoles local.

 Dummy atoms can be included (by setting INCDUM in MDC-block to 1) to obtain a fractional charge.
 This is generally useful and necessary only for small symmetrical molecules, when there are not
 enough degrees of freedom to reconstruct the multipoles.

 Since the atomic multipoles are reconstructed up to level X,
 the molecular multipoles are represented also up to level X.
 The recommended level is to reconstruct up to quadrupole : -> MDC-q charges.

 See: M. Swart, P.Th. van Duijnen, J.G. Snijders, J.Comput.Chem., (2001), p. 79-88.

 ------------------------------------------------------------- 
 Atomic electronic multipole moments from SCF equations (a.u.)
 ------------------------------------------------------------- 

   atom        charge        dip-x     dip-y     dip-z      quad-xx   quad-xy   quad-xz   quad-yy   quad-yz   quad-zz
 --------------------------------------------------------------------------------------------------------------------
    1 Be     0.000000    -0.000000  0.000000 -0.000000     0.000000 -0.000000 -0.000000 -0.000000 -0.000000  0.000000

 --------------------------------------- 
 Multipole derived atomic charges (a.u.)
 --------------------------------------- 

 The MDC-m charges are just the Monopole terms in the multipole expansion, while for the MDC-d charges
 also the Dipoles are reconstructed. The usually preferred charges are the MDC-q charges.
 These reconstruct the Monopoles, Dipoles and Quadrupoles (both atomic AND molecular).

        Atom    Level:     MDC-m        MDC-d        MDC-q
 ---------------------------------------------------------
     1     Be           0.000000     0.000000     0.000000

 ------------------------------------------------ 
 Average absolute deviations in atomic multipoles
 ------------------------------------------------ 

 Stated here are the average differences between the atomic multipoles
 and the reconstructed atomic multipoles (from the distributed charges).
 If these values are not zero, this means there are not enough degrees of freedom,
 to be able to reconstruct the atomic multipoles. (This usually happens only
 for small and/or highly symmetric molecules). If this is the case, one could add
 dummy atoms as extra point charges (and setting INCDUM in MDC-block to 1).

 Level:                                 MDC-d        MDC-q
 ---------------------------------------------------------
 Charge   (a.u.)                       0.0000       0.0000
 Dipole   (Debye)                      0.0000       0.0000
 Quad.    (a.u.)                       0.0000       0.0000

 --------------------------------------- 
 Represented molecular multipole moments
 --------------------------------------- 

 Given here are the Molecular multipole moments from the atomic charges, and from the Fit Density.
 Note that the atomic charges represent the latter, NOT the ones from the Exact density.

            Q (a.u.)             Dipole moment (Debye)                                          Quadrupole moment (a.u.)
                                 x         y         z              xx        xy        xz        yy        yz        zz
------------------------------------------------------------------------------------------------------------------------
MDC-m         0.0000        0.0000    0.0000    0.0000          0.0000    0.0000    0.0000    0.0000    0.0000    0.0000
MDC-d         0.0000        0.0000    0.0000    0.0000          0.0000    0.0000    0.0000    0.0000    0.0000    0.0000
MDC-q         0.0000        0.0000    0.0000    0.0000          0.0000    0.0000    0.0000    0.0000    0.0000    0.0000
 
Fit.Dens.     0.0000       -0.0000    0.0000   -0.0000          0.0000   -0.0000   -0.0000   -0.0000   -0.0000    0.0000



 =============
 Dipole Moment  ***  (Debye)  ***
 =============
  
 Vector   :         0.00000000      0.00000000      0.00000000
 Magnitude:         0.00000000

 This molecular dipole moment is calculated with analytic integration



 =========================================
 Quadrupole Moment (Buckingham convention)  ***  (a.u.)  ***
 =========================================
  
      quad-xx        quad-xy        quad-xz        quad-yy        quad-yz        quad-zz
      0.00000000     0.00000000     0.00000000     0.00000000     0.00000000     0.00000000

 This molecular quadrupole moment is calculated with analytic integration



 =======================================================================
 Electrostatic potential at the Nuclei due to electrons and other nuclei
 =======================================================================
  
         Atom                  Potential
         ----                  ---------
     1)   Be                  8.40734748
 
 
 ========================
 No memory problems found
 ========================
 
 Maximum number of active allocate calls:         722
 
 *******************************************************************************

                             A D F   E X I T
 NORMAL TERMINATION



 =================
 Timing Statistics
 =================
  
 Total Used :                     CPU=        4.26      System=        0.15     Elapsed=        4.68

 Calls  Section                     ( Mean, Percentage )
 ---------------------------------------------------------------------------------------------------
     3  ><      ................      0.00    0.06             0.00    0.00             0.00    0.06
     1  INIT    ................      0.51   11.97             0.01    7.32             0.79   16.85
     1  GEOMET  ................      0.04    0.85             0.03   21.94             0.07    1.48
     1  FRAGM   ................      0.01    0.29             0.00    2.53             0.02    0.42
     1  INPUTA  ................      0.00    0.04             0.00    0.00             0.00    0.04
     1  ATDEN   ................      0.00    0.04             0.00    0.63             0.00    0.05
     1  MAINSY  ................      0.02    0.41             0.00    1.42             0.02    0.42
     1  SYMFIT  ................      0.00    0.03             0.00    0.00             0.00    0.02
     1  CORORT  ................      0.00    0.02             0.00    0.00             0.00    0.02
     1  SYMORB  ................      0.00    0.04             0.00    0.00             0.00    0.04
     1  FITINT  ................      0.01    0.20             0.00    1.37             0.01    0.23
     1  CLSMAT  ................      0.00    0.06             0.00    0.00             0.00    0.06
     1  ORTHON  ................      0.01    0.24             0.00    0.71             0.01    0.25
     1  GENPT   ................      0.02    0.46             0.00    0.69             0.02    0.44
     1  PTBAS   ................      0.01    0.19             0.00    1.37             0.01    0.22
     3  FOCKY   ................      0.94   66.43             0.02   50.97             0.97   62.01
     3  FOCKTR  ................      0.00    0.27             0.00    1.62             0.00    0.30
     3  SDIIS   ................      0.00    0.21             0.00    1.80             0.00    0.25
     1  COREPS  ................      0.73   17.21             0.01    3.48             0.74   15.75
     1  POPAN   ................      0.02    0.46             0.00    2.78             0.03    0.58
     1  DEBYE   ................      0.00    0.06             0.00    0.69             0.00    0.08
     1  EXIT PROCEDURE .........      0.02    0.46             0.00    0.68             0.02    0.44


 Currently Open Files (EXIT00)
 ====================

 Unit    Access Format  Status   Type       Ident (file)
 -------------------------------------------------------
   3      SEQ    FORM   TRANSP  NORMAL      LOGFILE
                                          ( logfile )


 Buffered I/O statistics
 =======================
 Memory available:                     67108864
 Number of records fitting in memory:     16131
 Input :   0.2% of                        35871  *4k bytes
 Output:   9.1% of                         4245  *4k bytes
 Records from serial files evicted:           0
                    others evicted:           0
 Hash table lookups:      79680 with          0 conflicts (  0.00%)

 ***************************************************************************************************
 (LOGFILE)
 <Mar23-2019> <10:00:01>  ADF 2018  RunTime: Mar23-2019 10:00:01  Nodes: 1  Procs: 1
 <Mar23-2019> <10:00:01>  Beryllium (TZ2P)
 <Mar23-2019> <10:00:02>  RunType   : CREATE
 <Mar23-2019> <10:00:02>  Net Charge: 0 (Nuclei minus Electrons)
 <Mar23-2019> <10:00:02>  Symmetry  : ATOM
  Coordinates
    Atom         X           Y           Z   (Angstrom)
    1.Be        0.000000    0.000000    0.000000
 <Mar23-2019> <10:00:02>  >>>> CORORT
 <Mar23-2019> <10:00:02>  >>>> FITINT
 <Mar23-2019> <10:00:02>  >>>> CLSMAT
 <Mar23-2019> <10:00:02>  >>>> ORTHON
 <Mar23-2019> <10:00:02>  >>>> GENPT
 <Mar23-2019> <10:00:02>  Block Length=  76
 <Mar23-2019> <10:00:02>  >>>> PTBAS
 <Mar23-2019> <10:00:02>  >>>> CYCLE
 <Mar23-2019> <10:00:02>  CalcFitR12Fit
 <Mar23-2019> <10:00:02>  CalcFitCoeff
 <Mar23-2019> <10:00:02>              |Error|         MaxErr       Wt(A-DIIS)
 <Mar23-2019> <10:00:02>      1      0.00000000      0.00000000
 <Mar23-2019> <10:00:02>      2      2.28573666      1.42630537
 <Mar23-2019> <10:00:02>      3      0.17089659      0.14827668    100.0
 <Mar23-2019> <10:00:02>      4      0.02393983      0.02149783     20.7
 <Mar23-2019> <10:00:02>      5      0.00194658      0.00123573      0.2
 <Mar23-2019> <10:00:02>      6      0.00010835      0.00007064      0.0
 <Mar23-2019> <10:00:02>      7      0.00000082      0.00000053      0.0
 <Mar23-2019> <10:00:02>      8      0.00000004      0.00000003      0.0
 <Mar23-2019> <10:00:02>      9      0.00000000      0.00000000      0.0
 <Mar23-2019> <10:00:02>  SCF converged
 <Mar23-2019> <10:00:02>     10      0.00000000      0.00000000      0.0
 <Mar23-2019> <10:00:02>  >>>> POPAN
 <Mar23-2019> <10:00:02>  >>>> DEBYE
 <Mar23-2019> <10:00:02>  NORMAL TERMINATION
 <Mar23-2019> <10:00:02>  END
 <Mar23-2019> <10:00:03>  ADF 2018  RunTime: Mar23-2019 10:00:03  Nodes: 1  Procs: 4
 <Mar23-2019> <10:00:03>  Be
 <Mar23-2019> <10:00:03>  RunType   : SINGLE POINT
 <Mar23-2019> <10:00:03>  Net Charge: 0 (Nuclei minus Electrons)
 <Mar23-2019> <10:00:03>  Symmetry  : ATOM
 <Mar23-2019> <10:00:03>  >>>> FRAGM
  Coordinates
    Atom         X           Y           Z   (Angstrom)
    1.Be        0.000000    0.000000    0.000000
 <Mar23-2019> <10:00:03>  >>>> CORORT
 <Mar23-2019> <10:00:03>  >>>> FITINT
 <Mar23-2019> <10:00:03>  >>>> CLSMAT
 <Mar23-2019> <10:00:03>  >>>> ORTHON
 <Mar23-2019> <10:00:03>  >>>> GENPT
 <Mar23-2019> <10:00:03>  Block Length= 120
 <Mar23-2019> <10:00:03>  >>>> PTBAS
 <Mar23-2019> <10:00:03>  >>>> CYCLE
 <Mar23-2019> <10:00:04>  CalcFitR12Fit
 <Mar23-2019> <10:00:04>  CalcFitCoeff
 <Mar23-2019> <10:00:05>  Orbital Data from active fragment used
 <Mar23-2019> <10:00:05>              |Error|         MaxErr       Wt(A-DIIS)
 <Mar23-2019> <10:00:05>      1      0.00001481      0.00001321
 <Mar23-2019> <10:00:06>      2      0.00000073      0.00000057
 <Mar23-2019> <10:00:06>  SCF converged
 <Mar23-2019> <10:00:06>      3      0.00000006      0.00000005    100.0
 <Mar23-2019> <10:00:07>   Total energy        -14.57283480 a.u.
 <Mar23-2019> <10:00:07>  >>>> POPAN
 <Mar23-2019> <10:00:07>  >>>> DEBYE
 <Mar23-2019> <10:00:07>  NORMAL TERMINATION
 <Mar23-2019> <10:00:07>  END
