 
Create Kr   file=QZ4P-Kr
XC
  HartreeFock
End
  HartreeFock

 *******************************************************************************
 *                                                                             *
 *  -------------------------------------                                      *
 *   Amsterdam Density Functional  (ADF)         2018                          *
 *  -------------------------------------                                      *
 *                                               r70630 2018-11-24             *
 *                                                                             *
 *                                                                             *
 *                              =================                              *
 *                              |               |                              *
 *                              |     A D F     |                              *
 *                              |               |                              *
 *                              =================                              *
 *                                                                             *
 *                                                                             *
 *   Online information and documentation:  https://www.scm.com/support/       *
 *   E-mail:  support@scm.com   info@scm.com                                   *
 *                                                                             *
 *   Scientific publications using ADF results must be properly referenced     *
 *   See the User Manuals (or the web site) for recommended citations          *
 *   The terms and conditions of the End User License Agreement apply to       *
 *   the use of ADF, https://www.scm.com/license-terms/                        *
 *                                                                             *
 **********************  x86_64_linux_intel / intelmpi  ************************
 
 Licensed to: Mr. Vladimir Konjkov / Florida Institute of Technology / Melbourne / Florida / USA
 SCM User ID: u21173
  
 ADF 2018  RunTime: Mar23-2019 10:00:00  Nodes: 1  Procs: 1

 Temporary files are created in /tmp/kid_0.1105529031

 Krypton (QZ, all electron, 15S 11P 6D 3F)



 ===========================
 A T T A C H E D   F I L E S
 ===========================
  
 CREATE - Data File:    QZ4P-Kr
                        Krypton (QZ, all electron, 15S 11P 6D 3F)



 ===============================
 M O D E L   P A R A M E T E R S
 ===============================
  
 DENSITY FUNCTIONAL POTENTIAL (scf)
    Hybrid:                            HARTREEFOCK                             == Not Default ==

 SPIN  (restricted / unrestr.)
    Molecule:                          Restricted                               

 OTHER ASPECTS
    Relativistic Corrections:          ---                                      

    Nuclear Charge Density Model:      Point Charge Nuclei                      
    Core Treatment:                    Frozen Orbital(s)                        

    Hyperfine or Zeeman Interaction:   ---                                      



 =====================================
 S Y M M E T R Y ,   E L E C T R O N S
 =====================================
  
 Symmetry: ATOM

 Irreducible Representations, including subspecies
 -------------------------------------------------
 S
 P:x  P:y  P:z
 D:z2  D:x2-y2  D:xy  D:xz  D:yz
 F:z3  F:z  F:xyz  F:z2x  F:z2y  F:x  F:y


 Configuration of Valence Electrons
 ==================================

          Occupation Numbers
          -------------------------------------------------
 S        4*2
 P        3*6
 D        10
 F        0
          -------------------------------------------------

 Total:   36

 Net Charge: 0 (Nuclei minus Electrons)

 Preset values for MO occupations will be applied through SCF cycle no. 1000000
 Thereafter, the program will assign electrons to MOs that are spatially
 similar to the occupied MOs in a "reference" cycle ("KeepOrbitals").
 The reference cycle is always the PREVIOUS cycle: it will evolve with
 the SCF procedure.



 ================================
 (Slater-type)  F U N C T I O N S  ***  (Basis and Fit)  ***
 ================================
  

 Atom Type    1  (Kr)
 ==============

 Valence Basis Sets:  35
 -----------------------
   1 S  540.000000
   1 S  140.000000
   1 S   49.100000
   1 S   34.800000
   2 S   31.100000
   2 S   16.150000
   2 S   12.900000
   3 S   12.150000
   3 S    7.550000
   3 S    5.550000
   4 S    5.000000
   4 S    3.650000
   4 S    2.500000
   4 S    1.780000
   4 S    0.900000
   2 P  115.000000
   2 P   38.350000
   2 P   18.650000
   2 P   13.250000
   3 P   10.300000
   3 P    6.950000
   3 P    4.950000
   4 P    4.050000
   4 P    2.800000
   4 P    1.800000
   4 P    1.200000
   3 D   18.000000
   3 D    9.900000
   3 D    5.800000
   3 D    3.600000
   4 D    2.400000
   4 D    1.200000
   4 F    4.000000
   4 F    2.000000
   4 F    1.000000

 Charge Fitting Sets (for the computation of the Coulomb Potential):  75
 -----------------------------------------------------------------------
   1 S 1080.000000
   1 S  827.410000
   1 S  633.900000
   1 S  485.650000
   1 S  372.060000
   1 S  285.050000
   1 S  218.380000
   1 S  167.310000
   1 S  128.180000
   1 S   98.200000
   1 S   61.530000
   2 S   71.250000
   2 S   49.630000
   3 S   50.660000
   3 S   37.330000
   3 S   27.510000
   4 S   26.760000
   4 S   20.450000
   4 S   15.620000
   5 S   14.850000
   5 S   11.640000
   5 S    9.130000
   6 S    8.570000
   6 S    6.850000
   6 S    5.480000
   7 S    5.100000
   7 S    4.140000
   7 S    3.360000
   7 S    2.730000
   7 S    2.220000
   7 S    1.800000
   2 P   67.750000
   2 P   42.440000
   3 P   39.210000
   3 P   26.420000
   4 P   23.620000
   4 P   16.680000
   5 P   14.710000
   5 P   10.740000
   6 P    9.410000
   6 P    7.050000
   7 P    6.160000
   7 P    4.710000
   7 P    3.600000
   7 P    2.750000
   7 P    2.100000
   3 D   59.000000
   3 D   36.870000
   4 D   30.710000
   4 D   20.290000
   5 D   16.800000
   5 D   11.550000
   6 D    9.560000
   6 D    6.780000
   7 D    5.620000
   7 D    4.080000
   7 D    2.960000
   7 D    2.150000
   4 F   51.600000
   4 F   31.860000
   5 F   24.740000
   5 F   16.000000
   6 F   12.490000
   6 F    8.370000
   7 F    6.580000
   7 F    4.530000
   7 F    3.120000
   7 F    2.150000
   5 G   21.150000
   5 G   13.470000
   6 G   10.360000
   6 G    6.840000
   7 G    5.300000
   7 G    3.600000
   7 G    2.450000


 BAS: List of all Elementary Cartesian Basis Functions
 =====================================================

 The numbering in the list below (to the right of the function characteristics) is referred
 to in print-outs of MO eigenvectors and Mulliken populations in the BAS representation
 (as contrasted to the SFO representation).

 Notes:
 1. The functions are characterized by a polynomial prefactor (powers of x,y,z and r) and
    an exponential decay factor alpha.
 2. Since the basis sets are specific for an atom TYPE, the individual functions occur on
    all atoms of that type.
 3. The word 'Core' in the left margin signals that it is a Core Function (CF) : not a
    degree of freedom in the valence set, but only used to ensure orthogonalization of
    the other valence basis functions on the frozen Core Orbitals.


 (power of) X  Y  Z  R     Alpha  on Atom
            ==========     =====     ==========

 Kr                                   1
                                  ---------------------------------------------------------------------------
            0  0  0  0   540.000      1
            0  0  0  0   140.000      2
            0  0  0  0    49.100      3
            0  0  0  0    34.800      4
            0  0  0  1    31.100      5
            0  0  0  1    16.150      6
            0  0  0  1    12.900      7
            0  0  0  2    12.150      8
            0  0  0  2     7.550      9
            0  0  0  2     5.550     10
            0  0  0  3     5.000     11
            0  0  0  3     3.650     12
            0  0  0  3     2.500     13
            0  0  0  3     1.780     14
            0  0  0  3     0.900     15
            1  0  0  0   115.000     16
            0  1  0  0   115.000     17
            0  0  1  0   115.000     18
            1  0  0  0    38.350     19
            0  1  0  0    38.350     20
            0  0  1  0    38.350     21
            1  0  0  0    18.650     22
            0  1  0  0    18.650     23
            0  0  1  0    18.650     24
            1  0  0  0    13.250     25
            0  1  0  0    13.250     26
            0  0  1  0    13.250     27
            1  0  0  1    10.300     28
            0  1  0  1    10.300     29
            0  0  1  1    10.300     30
            1  0  0  1     6.950     31
            0  1  0  1     6.950     32
            0  0  1  1     6.950     33
            1  0  0  1     4.950     34
            0  1  0  1     4.950     35
            0  0  1  1     4.950     36
            1  0  0  2     4.050     37
            0  1  0  2     4.050     38
            0  0  1  2     4.050     39
            1  0  0  2     2.800     40
            0  1  0  2     2.800     41
            0  0  1  2     2.800     42
            1  0  0  2     1.800     43
            0  1  0  2     1.800     44
            0  0  1  2     1.800     45
            1  0  0  2     1.200     46
            0  1  0  2     1.200     47
            0  0  1  2     1.200     48
            2  0  0  0    18.000     49
            1  1  0  0    18.000     50
            1  0  1  0    18.000     51
            0  2  0  0    18.000     52
            0  1  1  0    18.000     53
            0  0  2  0    18.000     54
            2  0  0  0     9.900     55
            1  1  0  0     9.900     56
            1  0  1  0     9.900     57
            0  2  0  0     9.900     58
            0  1  1  0     9.900     59
            0  0  2  0     9.900     60
            2  0  0  0     5.800     61
            1  1  0  0     5.800     62
            1  0  1  0     5.800     63
            0  2  0  0     5.800     64
            0  1  1  0     5.800     65
            0  0  2  0     5.800     66
            2  0  0  0     3.600     67
            1  1  0  0     3.600     68
            1  0  1  0     3.600     69
            0  2  0  0     3.600     70
            0  1  1  0     3.600     71
            0  0  2  0     3.600     72
            2  0  0  1     2.400     73
            1  1  0  1     2.400     74
            1  0  1  1     2.400     75
            0  2  0  1     2.400     76
            0  1  1  1     2.400     77
            0  0  2  1     2.400     78
            2  0  0  1     1.200     79
            1  1  0  1     1.200     80
            1  0  1  1     1.200     81
            0  2  0  1     1.200     82
            0  1  1  1     1.200     83
            0  0  2  1     1.200     84
            3  0  0  0     4.000     85
            2  1  0  0     4.000     86
            2  0  1  0     4.000     87
            1  2  0  0     4.000     88
            1  1  1  0     4.000     89
            1  0  2  0     4.000     90
            0  3  0  0     4.000     91
            0  2  1  0     4.000     92
            0  1  2  0     4.000     93
            0  0  3  0     4.000     94
            3  0  0  0     2.000     95
            2  1  0  0     2.000     96
            2  0  1  0     2.000     97
            1  2  0  0     2.000     98
            1  1  1  0     2.000     99
            1  0  2  0     2.000    100
            0  3  0  0     2.000    101
            0  2  1  0     2.000    102
            0  1  2  0     2.000    103
            0  0  3  0     2.000    104
            3  0  0  0     1.000    105
            2  1  0  0     1.000    106
            2  0  1  0     1.000    107
            1  2  0  0     1.000    108
            1  1  1  0     1.000    109
            1  0  2  0     1.000    110
            0  3  0  0     1.000    111
            0  2  1  0     1.000    112
            0  1  2  0     1.000    113
            0  0  3  0     1.000    114

 Total number of charge fitting functions (nprimf)       353
 Total number of Cartesian basis functions (naos)        114
 Total number of Cartesian core functions  (ncos)          0



 BAS: List of all Elementary Cartesian Basis Functions
 =====================================================

 The numbering in the list below (to the right of the function characteristics) is referred
 to in print-outs of MO eigenvectors and Mulliken populations in the BAS representation
 (as contrasted to the SFO representation).

 Notes:
 1. The functions are characterized by a polynomial prefactor (powers of x,y,z and r) and
    an exponential decay factor alpha.
 2. Since the basis sets are specific for an atom TYPE, the individual functions occur on
    all atoms of that type.
 3. The word 'Core' in the left margin signals that it is a Core Function (CF) : not a
    degree of freedom in the valence set, but only used to ensure orthogonalization of
    the other valence basis functions on the frozen Core Orbitals.


 (power of) X  Y  Z  R     Alpha  on Atom
            ==========     =====     ==========

 Kr                                   1
                                  ---------------------------------------------------------------------------
            0  0  0  0   540.000      1
            0  0  0  0   140.000      2
            0  0  0  0    49.100      3
            0  0  0  0    34.800      4
            0  0  0  1    31.100      5
            0  0  0  1    16.150      6
            0  0  0  1    12.900      7
            0  0  0  2    12.150      8
            0  0  0  2     7.550      9
            0  0  0  2     5.550     10
            0  0  0  3     5.000     11
            0  0  0  3     3.650     12
            0  0  0  3     2.500     13
            0  0  0  3     1.780     14
            0  0  0  3     0.900     15
            1  0  0  0   115.000     16
            0  1  0  0   115.000     17
            0  0  1  0   115.000     18
            1  0  0  0    38.350     19
            0  1  0  0    38.350     20
            0  0  1  0    38.350     21
            1  0  0  0    18.650     22
            0  1  0  0    18.650     23
            0  0  1  0    18.650     24
            1  0  0  0    13.250     25
            0  1  0  0    13.250     26
            0  0  1  0    13.250     27
            1  0  0  1    10.300     28
            0  1  0  1    10.300     29
            0  0  1  1    10.300     30
            1  0  0  1     6.950     31
            0  1  0  1     6.950     32
            0  0  1  1     6.950     33
            1  0  0  1     4.950     34
            0  1  0  1     4.950     35
            0  0  1  1     4.950     36
            1  0  0  2     4.050     37
            0  1  0  2     4.050     38
            0  0  1  2     4.050     39
            1  0  0  2     2.800     40
            0  1  0  2     2.800     41
            0  0  1  2     2.800     42
            1  0  0  2     1.800     43
            0  1  0  2     1.800     44
            0  0  1  2     1.800     45
            1  0  0  2     1.200     46
            0  1  0  2     1.200     47
            0  0  1  2     1.200     48
            2  0  0  0    18.000     49
            1  1  0  0    18.000     50
            1  0  1  0    18.000     51
            0  2  0  0    18.000     52
            0  1  1  0    18.000     53
            0  0  2  0    18.000     54
            2  0  0  0     9.900     55
            1  1  0  0     9.900     56
            1  0  1  0     9.900     57
            0  2  0  0     9.900     58
            0  1  1  0     9.900     59
            0  0  2  0     9.900     60
            2  0  0  0     5.800     61
            1  1  0  0     5.800     62
            1  0  1  0     5.800     63
            0  2  0  0     5.800     64
            0  1  1  0     5.800     65
            0  0  2  0     5.800     66
            2  0  0  0     3.600     67
            1  1  0  0     3.600     68
            1  0  1  0     3.600     69
            0  2  0  0     3.600     70
            0  1  1  0     3.600     71
            0  0  2  0     3.600     72
            2  0  0  1     2.400     73
            1  1  0  1     2.400     74
            1  0  1  1     2.400     75
            0  2  0  1     2.400     76
            0  1  1  1     2.400     77
            0  0  2  1     2.400     78
            2  0  0  1     1.200     79
            1  1  0  1     1.200     80
            1  0  1  1     1.200     81
            0  2  0  1     1.200     82
            0  1  1  1     1.200     83
            0  0  2  1     1.200     84
            3  0  0  0     4.000     85
            2  1  0  0     4.000     86
            2  0  1  0     4.000     87
            1  2  0  0     4.000     88
            1  1  1  0     4.000     89
            1  0  2  0     4.000     90
            0  3  0  0     4.000     91
            0  2  1  0     4.000     92
            0  1  2  0     4.000     93
            0  0  3  0     4.000     94
            3  0  0  0     2.000     95
            2  1  0  0     2.000     96
            2  0  1  0     2.000     97
            1  2  0  0     2.000     98
            1  1  1  0     2.000     99
            1  0  2  0     2.000    100
            0  3  0  0     2.000    101
            0  2  1  0     2.000    102
            0  1  2  0     2.000    103
            0  0  3  0     2.000    104
            3  0  0  0     1.000    105
            2  1  0  0     1.000    106
            2  0  1  0     1.000    107
            1  2  0  0     1.000    108
            1  1  1  0     1.000    109
            1  0  2  0     1.000    110
            0  3  0  0     1.000    111
            0  2  1  0     1.000    112
            0  1  2  0     1.000    113
            0  0  3  0     1.000    114
1
 ***************************************************************************************************



                                              ***********************
                                              *  T E C H N I C A L  *
                                              ***********************
  



 =============================================================
 P A R A L L E L I Z A T I O N  and  V E C T O R I Z A T I O N
 =============================================================
  
 Nr of parallel processes:                                1
 Maximum vector length in NumInt loops:                 128

 IO buffersize (Mb):                                     64.000000



 =====================
 S C F   U P D A T E S
 =====================
  
 Max. nr. of cycles:                               300
 Convergence criterion:                              0.0000000100
   secondary criterion:                              0.0000000100

 Mix parameter (when DIIS does not apply):           0.2000000000
 Special mix parameter for the first cycle:          1.0000000000
 Mixed ADIIS+DIIS will be used
    Max number of expansion vectors:                10
    Pure ADIIS when Max([F,P]) is above              0.1000000000
    Pure DIIS when Max([F,P]) is below               0.0010000000
 Automatic ElectronSmearing (in case of problematic SCF convergence) disabled



 =================
 P R E C I S I O N  ***  (General: NumInt, NeglectFunctionTails, ...)  ***
 =================
  

 NumInt:           Target precision:                12.0000000000
 -------           Initial precision:               10.0000000000
                   Min. precision (optimization):   10.0000000000

 Neglect Functions:          Basis functions:        0.1000000000E-13
 ------------------          Fit functions:          0.1000000000E-13



 ===========================
 L I N E A R   S C A L I N G
 ===========================
  

 Cut-off radii density fit:                        0.1000000000E-97
 Overlap cut-off criterion AO matrix elements:     0.1000000000E-97
 Cut-offs for Coulomb potential and fitted density:0.1000000000E-97
 Cut-off criterion for Coulomb multipole terms:    0.1000000000E-97
 Progressive Convergence parameter:                 0.000000000    
1
 ***************************************************************************************************



                                            ***************************
                                            *  C O M P U T A T I O N  *
                                            ***************************
  

 Number of elements of the density matrix on this node (used, total):      6555      6555



 ===========================================
 Numerical Integration : Fuzzy Cells (Becke)
 ===========================================
  
 Becke grid quality: VERYGOOD       
  
 Lebedev angular grid order:             min:  13 max:  41
 Nr. of radial points:                   min: 204 max: 204

 Total nr. of points:        204
 Nr. of blocks:                2
 Block length:               102
 Nr. of dummy points:          0


 Test of Precision of the Numerical Integration Grid
 ===================================================

 Integral of the Total Core Density:                   0.00000000000000



 ========================
 Density Fitting (zlmFit)
 ========================
  
 ZlmFit Fit Quality: VERYGOOD       
  
 Max L-expansion:                        min:   0 max:   0
 Nr. of radial interpolation points:     min: 460 max: 460



 ======================
 RI Hartree-Fock Scheme
 ======================
  
 Fit Set Quality     : NORMAL
 Integration Quality : NORMAL
 Threshold Quality   : NORMAL
 Response Quality    : DEFAULT
 Is Range Separated  :  F
 
 RIHartreeFock Dependency: number of modified vectors:           4



 =====
 S C F  ***  ScaSCF  ***
 =====
  

 CYCLE    1
 SCF Error: norm([F,P])=      0.000000000000, max([F,P])=      0.000000000000
 orbitals (Q,E):
 ---------------
 S :1...14           ( 2.00  -648.0000)  ( 2.00  -162.0000)  ( 2.00   -72.0000)  ( 2.00   -40.4975)
                     ( 0.00   -25.9018)  ( 0.00   -17.9228)  ( 0.00   -12.9356)  ( 0.00    -9.3696)
                     ( 0.00    -6.8882)  ( 0.00    -5.1829)  ( 0.00    49.9493)  ( 0.00   360.7979)
                     ( 0.00  1972.6512)  ( 0.00 13851.0842)
 P :1...11           ( 6.00  -161.9997)  ( 6.00   -71.9936)  ( 6.00   -40.4995)  ( 0.00   -25.9022)
                     ( 0.00   -17.9302)  ( 0.00   -13.0727)  ( 0.00    -9.5159)  ( 0.00    -6.3859)
                     ( 0.00    41.3459)  ( 0.00   579.3555)  ( 0.00  6705.7064)
 D :1...6            (10.00   -71.8353)  ( 0.00   -40.0798)  ( 0.00   -24.7363)  ( 0.00   -15.1456)
                     ( 0.00    -8.2785)  ( 0.00    18.1796)
 F :1...3            ( 0.00   -29.1834)  ( 0.00   -14.5118)  ( 0.00    -7.1778)

 CYCLE    2
  SDIIS (wt  0.000):  1.0000 -0.0000
 A-DIIS (wt  1.000):  0.0000  1.0000
  DIIS coefficients:  0.0000  1.0000
 SCF Error: norm([F,P])=    163.735475776241, max([F,P])=     25.447939788971
 orbitals (Q,E):
 ---------------
 S :1...5            ( 2.00  -474.3013)  ( 2.00   -39.0710)  ( 2.00    -0.6529)  ( 2.00     0.0605)
                     ( 0.00     0.3647)
 P :1...4            ( 6.00   -30.1385)  ( 6.00     0.1421)  ( 6.00     0.4802)  ( 0.00     1.0854)
 D :1...2            (10.00     0.3490)  ( 0.00     1.5675)
 F :1...1            ( 0.00     0.4112)

 CYCLE    3
  SDIIS (wt  0.000):  0.1082  0.8918
 A-DIIS (wt  1.000):  0.4667  0.5333
  DIIS coefficients:  0.4667  0.5333
 SCF Error: norm([F,P])=     53.628475645333, max([F,P])=     15.910660104951
 orbitals (Q,E):
 ---------------
 S :1...5            ( 2.00  -521.1707)  ( 2.00   -74.3616)  ( 2.00   -16.9966)  ( 2.00    -5.1085)
                     ( 0.00    -1.4991)
 P :1...4            ( 6.00   -66.9197)  ( 6.00   -14.2004)  ( 6.00    -4.2176)  ( 0.00    -1.2015)
 D :1...2            (10.00    -9.7596)  ( 0.00    -2.7760)
 F :1...1            ( 0.00    -1.6420)

 CYCLE    4
  SDIIS (wt  0.000):  0.0104 -0.0010  0.9906
 A-DIIS (wt  1.000):  0.0000  0.0000  1.0000
  DIIS coefficients:  0.0000  0.0000  1.0000
 SCF Error: norm([F,P])=     11.176089099731, max([F,P])=      2.218721544777
 orbitals (Q,E):
 ---------------
 S :1...5            ( 2.00  -516.3553)  ( 2.00   -66.1312)  ( 2.00    -8.0499)  ( 2.00    -0.2477)
                     ( 0.00     0.0850)
 P :1...4            ( 6.00   -59.2064)  ( 6.00    -5.5453)  ( 6.00     0.1022)  ( 0.00     0.3283)
 D :1...2            (10.00    -1.0510)  ( 0.00     0.3472)
 F :1...1            ( 0.00     0.4098)

 CYCLE    5
  SDIIS (wt  0.000):  0.0080 -0.0215  0.3695  0.6440
 A-DIIS (wt  1.000):  0.0000  0.0000  0.2977  0.7023
  DIIS coefficients:  0.0000  0.0000  0.2977  0.7023
 SCF Error: norm([F,P])=      7.833517903821, max([F,P])=      2.072105659777
 orbitals (Q,E):
 ---------------
 S :1...5            ( 2.00  -522.3187)  ( 2.00   -71.7107)  ( 2.00   -12.0027)  ( 2.00    -1.6805)
                     ( 0.00    -0.0909)
 P :1...4            ( 6.00   -64.8647)  ( 6.00    -9.4759)  ( 6.00    -0.8987)  ( 0.00     0.0003)
 D :1...2            (10.00    -4.9639)  ( 0.00     0.0093)
 F :1...1            ( 0.00     0.2921)

 CYCLE    6
  SDIIS (wt  0.000): -0.0023  0.0022 -0.0091  0.2352  0.7741
 A-DIIS (wt  1.000):  0.0000  0.0000  0.0000  0.0000  1.0000
  DIIS coefficients:  0.0000  0.0000  0.0000  0.0000  1.0000
 SCF Error: norm([F,P])=      2.829941335957, max([F,P])=      0.569386970235
 orbitals (Q,E):
 ---------------
 S :1...5            ( 2.00  -518.8229)  ( 2.00   -68.7885)  ( 2.00   -10.1850)  ( 2.00    -0.9675)
                     ( 0.00     0.0701)
 P :1...4            ( 6.00   -61.8601)  ( 6.00    -7.6674)  ( 6.00    -0.3710)  ( 0.00     0.2053)
 D :1...2            (10.00    -3.1581)  ( 0.00     0.2978)
 F :1...1            ( 0.00     0.3998)

 CYCLE    7
  SDIIS (wt  0.000): -0.0001  0.0009 -0.0129 -0.0564  0.3548  0.7137
 A-DIIS (wt  1.000):  0.0000  0.0000  0.0000  0.0000  0.0521  0.9479
  DIIS coefficients:  0.0000  0.0000  0.0000  0.0000  0.0521  0.9479
 SCF Error: norm([F,P])=      1.882603456000, max([F,P])=      0.408573806563
 orbitals (Q,E):
 ---------------
 S :1...5            ( 2.00  -520.8630)  ( 2.00   -70.4779)  ( 2.00   -11.1505)  ( 2.00    -1.2217)
                     ( 0.00     0.0591)
 P :1...4            ( 6.00   -63.6033)  ( 6.00    -8.6314)  ( 6.00    -0.5775)  ( 0.00     0.1860)
 D :1...2            (10.00    -4.1255)  ( 0.00     0.2548)
 F :1...1            ( 0.00     0.3912)

 CYCLE    8
  SDIIS (wt  0.000): -0.0000 -0.0001  0.0000 -0.0192 -0.0073  0.4102  0.6163
 A-DIIS (wt  1.000):  0.0000  0.0000  0.0000  0.0000  0.0000  0.0796  0.9204
  DIIS coefficients:  0.0000  0.0000  0.0000  0.0000  0.0000  0.0796  0.9204
 SCF Error: norm([F,P])=      1.071713088795, max([F,P])=      0.232969710119
 orbitals (Q,E):
 ---------------
 S :1...5            ( 2.00  -519.8396)  ( 2.00   -69.6397)  ( 2.00   -10.7208)  ( 2.00    -1.1291)
                     ( 0.00     0.0649)
 P :1...4            ( 6.00   -62.7364)  ( 6.00    -8.2030)  ( 6.00    -0.5051)  ( 0.00     0.1945)
 D :1...2            (10.00    -3.6960)  ( 0.00     0.2725)
 F :1...1            ( 0.00     0.3953)

 CYCLE    9
  SDIIS (wt  0.000):  0.0000 -0.0000 -0.0006  0.0008 -0.0141 -0.0654  0.2985  0.7808
 A-DIIS (wt  1.000):  0.0000  0.0000  0.0000  0.0000  0.0000  0.0000  0.0218  0.9782
  DIIS coefficients:  0.0000  0.0000  0.0000  0.0000  0.0000  0.0000  0.0218  0.9782
 SCF Error: norm([F,P])=      0.509275501132, max([F,P])=      0.110605438845
 orbitals (Q,E):
 ---------------
 S :1...5            ( 2.00  -520.3542)  ( 2.00   -70.0541)  ( 2.00   -10.9237)  ( 2.00    -1.1676)
                     ( 0.00     0.0634)
 P :1...4            ( 6.00   -63.1664)  ( 6.00    -8.4057)  ( 6.00    -0.5356)  ( 0.00     0.1916)
 D :1...2            (10.00    -3.8998)  ( 0.00     0.2667)
 F :1...1            ( 0.00     0.3944)

 CYCLE   10
  SDIIS (wt  0.369): -0.0000  0.0000  0.0001 -0.0001 -0.0002 -0.0089 -0.0909  0.2999  0.8001
 A-DIIS (wt  0.631):  0.0000  0.0000  0.0000  0.0000  0.0000  0.0000  0.0000  0.1372  0.8628
  DIIS coefficients: -0.0000  0.0000  0.0000 -0.0000 -0.0001 -0.0033 -0.0335  0.1973  0.8397
 SCF Error: norm([F,P])=      0.291556912334, max([F,P])=      0.063462816976
 orbitals (Q,E):
 ---------------
 S :1...5            ( 2.00  -520.1223)  ( 2.00   -69.8671)  ( 2.00   -10.8320)  ( 2.00    -1.1497)
                     ( 0.00     0.0643)
 P :1...4            ( 6.00   -62.9724)  ( 6.00    -8.3141)  ( 6.00    -0.5216)  ( 0.00     0.1931)
 D :1...2            (10.00    -3.8079)  ( 0.00     0.2698)
 F :1...1            ( 0.00     0.3950)

 CYCLE   11
  SDIIS (wt  0.857):  0.0000  0.0000  0.0000  0.0000  0.0002  0.0024  0.0027 -0.1209  0.0478  1.0678
 A-DIIS (wt  0.143):  0.0000  0.0000  0.0000  0.0000  0.0000  0.0000  0.0000  0.0000  0.0000  1.0000
  DIIS coefficients:  0.0000  0.0000  0.0000  0.0000  0.0002  0.0021  0.0023 -0.1036  0.0409  1.0581
 SCF Error: norm([F,P])=      0.069684495986, max([F,P])=      0.015162650176
 orbitals (Q,E):
 ---------------
 S :1...5            ( 2.00  -520.1710)  ( 2.00   -69.9062)  ( 2.00   -10.8511)  ( 2.00    -1.1532)
                     ( 0.00     0.0641)
 P :1...4            ( 6.00   -63.0130)  ( 6.00    -8.3332)  ( 6.00    -0.5244)  ( 0.00     0.1928)
 D :1...2            (10.00    -3.8270)  ( 0.00     0.2692)
 F :1...1            ( 0.00     0.3949)

 CYCLE   12
  SDIIS (wt  0.997):  0.0000  0.0000  0.0000  0.0000  0.0002  0.0006 -0.0016 -0.0254  1.0261
 A-DIIS (wt  0.003):  0.0000  0.0000  0.0000  0.0000  0.0000  0.0000  0.0000  0.0000  1.0000
  DIIS coefficients:  0.0000  0.0000  0.0000  0.0000  0.0002  0.0006 -0.0016 -0.0253  1.0261
 SCF Error: norm([F,P])=      0.006107785942, max([F,P])=      0.001327648829
 orbitals (Q,E):
 ---------------
 S :1...5            ( 2.00  -520.1670)  ( 2.00   -69.9030)  ( 2.00   -10.8495)  ( 2.00    -1.1529)
                     ( 0.00     0.0642)
 P :1...4            ( 6.00   -63.0098)  ( 6.00    -8.3316)  ( 6.00    -0.5242)  ( 0.00     0.1928)
 D :1...2            (10.00    -3.8255)  ( 0.00     0.2693)
 F :1...1            ( 0.00     0.3949)

 CYCLE   13
  SDIIS (wt  1.000):  0.0000  0.0000  0.0000  0.0000 -0.0001 -0.0011  0.0037  0.0091 -0.1532  1.1415
  DIIS coefficients:  0.0000  0.0000  0.0000  0.0000 -0.0001 -0.0011  0.0037  0.0091 -0.1532  1.1415
 SCF Error: norm([F,P])=      0.000008282749, max([F,P])=      0.000001834114
 orbitals (Q,E):
 ---------------
 S :1...5            ( 2.00  -520.1670)  ( 2.00   -69.9030)  ( 2.00   -10.8495)  ( 2.00    -1.1529)
                     ( 0.00     0.0642)
 P :1...4            ( 6.00   -63.0098)  ( 6.00    -8.3316)  ( 6.00    -0.5242)  ( 0.00     0.1928)
 D :1...2            (10.00    -3.8255)  ( 0.00     0.2693)
 F :1...1            ( 0.00     0.3949)

 CYCLE   14
  SDIIS (wt  1.000):  0.0000  0.0000  0.0001 -0.0003 -0.0004  0.0117 -0.1389  1.1278
  DIIS coefficients:  0.0000  0.0000  0.0001 -0.0003 -0.0004  0.0117 -0.1389  1.1278
 SCF Error: norm([F,P])=      0.000000121505, max([F,P])=      0.000000024226
 orbitals (Q,E):
 ---------------
 S :1...5            ( 2.00  -520.1670)  ( 2.00   -69.9030)  ( 2.00   -10.8495)  ( 2.00    -1.1529)
                     ( 0.00     0.0642)
 P :1...4            ( 6.00   -63.0098)  ( 6.00    -8.3316)  ( 6.00    -0.5242)  ( 0.00     0.1928)
 D :1...2            (10.00    -3.8255)  ( 0.00     0.2693)
 F :1...1            ( 0.00     0.3949)

 CYCLE   15
  SDIIS (wt  1.000): -0.0000 -0.0000 -0.0000  0.0016 -0.0560  1.0544
  DIIS coefficients: -0.0000 -0.0000 -0.0000  0.0016 -0.0560  1.0544
 SCF Error: norm([F,P])=      0.000000005961, max([F,P])=      0.000000001685
 orbitals (Q,E):
 ---------------
 S :1...5            ( 2.00  -520.1670)  ( 2.00   -69.9030)  ( 2.00   -10.8495)  ( 2.00    -1.1529)
                     ( 0.00     0.0642)
 P :1...4            ( 6.00   -63.0098)  ( 6.00    -8.3316)  ( 6.00    -0.5242)  ( 0.00     0.1928)
 D :1...2            (10.00    -3.8255)  ( 0.00     0.2693)
 F :1...1            ( 0.00     0.3949)

 SCF CONVERGED

 CYCLE   16
1
 ***************************************************************************************************



                                                *******************
                                                *  R E S U L T S  *
                                                *******************
  
  
 Hartree-Fock exchange energy:   -93.8561696799093     
 *** Setting up for NEW gradients in Focky
 *** Using FIT density in Focky

 Orbital Energies, per Irrep and Spin:
 ======================================
                        Occup              E (au)              E (eV)       Diff (eV) with prev. cycle
                        -----      --------------------        ------       --------------------------
 S
               1        2.000     -0.52016702298675E+03    -14154.465              -1.54E-08
               2        2.000     -0.69903018537098E+02     -1902.158              -1.40E-08
               3        2.000     -0.10849505539804E+02      -295.230              -1.43E-08
               4        2.000     -0.11529197172505E+01       -31.373              -6.79E-09
               5        0.000      0.64152024004393E-01         1.746
               6        0.000      0.43512856859423E+00        11.840
               7        0.000      0.16865425970968E+01        45.893
               8        0.000      0.50807510220523E+01       138.254
               9        0.000      0.14370274945296E+02       391.035
              10        0.000      0.41491043963883E+02      1129.029
              11        0.000      0.12907874922168E+03      3512.411
              12        0.000      0.47177326694876E+03     12837.604
              13        0.000      0.21138756302677E+04     57521.483
              14        0.000      0.14016230550285E+05    381401.039
 P
               1        6.000     -0.63009754498258E+02     -1714.583              -1.44E-08
               2        6.000     -0.83316336502077E+01      -226.715              -1.50E-08
               3        6.000     -0.52417207647858E+00       -14.263              -7.75E-09
               4        0.000      0.19284649654284E+00         5.248
               5        0.000      0.91407387115400E+00        24.873
               6        0.000      0.31086338476867E+01        84.590
               7        0.000      0.97574512194112E+01       265.514
               8        0.000      0.32430326437699E+02       882.474
               9        0.000      0.12825431395233E+03      3489.977
              10        0.000      0.70554844843614E+03     19198.950
              11        0.000      0.68655075940897E+04    186819.967
 D
               1       10.000     -0.38254517588112E+01      -104.096              -1.52E-08
               2        0.000      0.26928075207372E+00         7.328
               3        0.000      0.90772496768856E+00        24.700
               4        0.000      0.39383676544334E+01       107.168
               5        0.000      0.17783208005672E+02       483.906
               6        0.000      0.10545871958461E+03      2869.678
 F
               1        0.000      0.39493651292044E+00        10.747
               2        0.000      0.14744826709663E+01        40.123
               3        0.000      0.46474744588185E+01       126.464
  
 HOMO :        3 P                -0.52417207647858E+00
 LUMO :        5 S                 0.64152024004393E-01
  


 Orbital Energies, all Irreps
 ========================================

 Irrep        no.  (spin)   Occup              E (au)                E (eV)
 ---------------------------------------------------------------------------
 S             1             2.00       -0.52016702298675E+03    -14154.4649
 S             2             2.00       -0.69903018537098E+02     -1902.1579
 P             1             6.00       -0.63009754498258E+02     -1714.5827
 S             3             2.00       -0.10849505539804E+02      -295.2301
 P             2             6.00       -0.83316336502077E+01      -226.7153
 D             1            10.00       -0.38254517588112E+01      -104.0958
 S             4             2.00       -0.11529197172505E+01       -31.3725
 P             3             6.00       -0.52417207647858E+00       -14.2634
 S             5             0.00        0.64152024004393E-01         1.7457
 P             4             0.00        0.19284649654284E+00         5.2476
 D             2             0.00        0.26928075207372E+00         7.3275
 F             1             0.00        0.39493651292044E+00        10.7468
 S             6             0.00        0.43512856859423E+00        11.8405
 D             3             0.00        0.90772496768856E+00        24.7005
 P             5             0.00        0.91407387115400E+00        24.8732
 F             2             0.00        0.14744826709663E+01        40.1227
 S             7             0.00        0.16865425970968E+01        45.8932
 P             6             0.00        0.31086338476867E+01        84.5902
 D             4             0.00        0.39383676544334E+01       107.1684
 F             3             0.00        0.46474744588185E+01       126.4642
 S             8             0.00        0.50807510220523E+01       138.2543
 P             7             0.00        0.97574512194112E+01       265.5138
 S             9             0.00        0.14370274945296E+02       391.0351
 D             5             0.00        0.17783208005672E+02       483.9057
 P             8             0.00        0.32430326437699E+02       882.4741
 S            10             0.00        0.41491043963883E+02      1129.0288
 D             6             0.00        0.10545871958461E+03      2869.6778
 P             9             0.00        0.12825431395233E+03      3489.9775
 S            11             0.00        0.12907874922168E+03      3512.4115
 S            12             0.00        0.47177326694876E+03     12837.6038
 P            10             0.00        0.70554844843614E+03     19198.9501
 S            13             0.00        0.21138756302677E+04     57521.4826
 P            11             0.00        0.68655075940897E+04    186819.9671
 S            14             0.00        0.14016230550285E+05    381401.0391
 S            15             0.00        0.19242843915301E+06   5236244.2513


 All Electron Calculation, thus no Orbital Energies of the Core Orbitals are calculated



 =======================================
 M U L L I K E N   P O P U L A T I O N S
 =======================================
  
 The survey below gives for each atom:
 a) the total charge (Z minus electrons)
 b) the net spin polarization (nr of electrons spin-A minus spin-B)
 c) for each spin the atomic electron valence density (integrated) per L-value.

 Atom              Charge    Spin density          S         P         D         F
 ----              ------    ------------       ------    ------    ------    ------
 1 Kr             -0.0000                       8.0000   18.0000   10.0000    0.0000

 Populations of individual BAS functions
 ----------------------------------------
 1 Kr          -0.0000 -0.0000  0.0983  1.9060 -0.1821  1.2283  0.7284  0.3843  0.9451  1.0275
               -0.0890  0.7763  0.9956  0.1795  0.0018 -0.0000 -0.0000 -0.0000  0.0136  0.0136
                0.0136  0.8845  0.8845  0.8845  1.0641  1.0641  1.0641  0.3038  0.3038  0.3038
                1.2748  1.2748  1.2748  0.4720  0.4720  0.4720  0.2016  0.2016  0.2016  0.9255
                0.9255  0.9255  0.7753  0.7753  0.7753  0.0850  0.0850  0.0850  0.0154  0.0232
                0.0232  0.0154  0.0232  0.0154  0.3854  0.5782  0.5782  0.3854  0.5782  0.3854
                0.7531  1.1297  1.1297  0.7531  1.1297  0.7531  0.1795  0.2692  0.2692  0.1795
                0.2692  0.1795 -0.0002 -0.0003 -0.0003 -0.0002 -0.0003 -0.0002  0.0001  0.0001
                0.0001  0.0001  0.0001  0.0001  0.0000  0.0000  0.0000  0.0000  0.0000  0.0000
                0.0000  0.0000  0.0000  0.0000  0.0000  0.0000  0.0000  0.0000  0.0000  0.0000
                0.0000  0.0000  0.0000  0.0000  0.0000  0.0000  0.0000  0.0000  0.0000  0.0000
                0.0000  0.0000  0.0000  0.0000

 Gross Charges per Atom (Z minus electrons)
 ==========================================
            -0.0000
 Net Total: -0.00000000



 =======================================================================
 Electrostatic potential at the Nuclei due to electrons and other nuclei
 =======================================================================
  
         Atom                  Potential
         ----                  ---------
     1)   Kr                182.84768833
 
 
 ========================
 No memory problems found
 ========================
 
 Maximum number of active allocate calls:         454
 
 *******************************************************************************

                             A D F   E X I T
 NORMAL TERMINATION



 =================
 Timing Statistics
 =================
  
 Total Used :                     CPU=        4.05      System=        0.14     Elapsed=        4.95

 Calls  Section                     ( Mean, Percentage )
 ---------------------------------------------------------------------------------------------------
     3  ><      ................      0.00    0.06             0.00    0.00             0.00    0.05
     1  INIT    ................      0.03    0.82             0.00    2.35             0.80   16.19
     1  GEOMET  ................      0.02    0.49             0.03   20.25             0.05    0.97
     1  INPUTA  ................      0.00    0.09             0.00    0.00             0.00    0.07
     1  MAINSY  ................      0.01    0.21             0.00    0.04             0.01    0.17
     1  SYMFIT  ................      0.00    0.02             0.00    0.00             0.00    0.02
     1  CORORT  ................      0.00    0.02             0.00    0.00             0.00    0.01
     1  SYMORB  ................      0.00    0.02             0.00    0.00             0.00    0.01
     1  FITINT  ................      0.06    1.36             0.00    0.00             0.06    1.11
     1  CLSMAT  ................      0.00    0.03             0.00    0.00             0.00    0.03
     1  ORTHON  ................      0.01    0.13             0.00    0.00             0.01    0.11
     1  GENPT   ................      0.03    0.76             0.00    0.69             0.03    0.64
     1  PTBAS   ................      0.01    0.19             0.00    0.00             0.01    0.15
    16  FOCKY   ................      0.23   90.33             0.01   71.04             0.23   75.84
    16  FOCKTR  ................      0.00    0.35             0.00    0.92             0.00    0.31
    16  SDIIS   ................      0.00    0.86             0.00    2.44             0.00    0.77
     1  COREPS  ................      0.09    2.10             0.00    0.11             0.09    1.72
     1  POPAN   ................      0.07    1.62             0.00    1.44             0.07    1.36
     1  DEBYE   ................      0.00    0.07             0.00    0.00             0.00    0.05
     1  EXIT PROCEDURE .........      0.02    0.48             0.00    0.70             0.02    0.41


 Currently Open Files (EXIT00)
 ====================

 Unit    Access Format  Status   Type       Ident (file)
 -------------------------------------------------------
   3      SEQ    FORM   TRANSP  NORMAL      LOGFILE
                                          ( logfile )


 Buffered I/O statistics
 =======================
 Memory available:                     67108864
 Number of records fitting in memory:     16131
 Input :   0.0% of                        92619  *4k bytes
 Output:   1.7% of                        12383  *4k bytes
 Records from serial files evicted:           0
                    others evicted:           0
 Hash table lookups:     219330 with      45256 conflicts ( 20.63%)

 ***************************************************************************************************
 (LOGFILE)
 <Mar23-2019> <10:00:00>  ADF 2018  RunTime: Mar23-2019 10:00:00  Nodes: 1  Procs: 1
 <Mar23-2019> <10:00:00>  Krypton (QZ, all electron, 15S 11P 6D 3F)
 <Mar23-2019> <10:00:01>  RunType   : CREATE
 <Mar23-2019> <10:00:01>  Net Charge: 0 (Nuclei minus Electrons)
 <Mar23-2019> <10:00:01>  Symmetry  : ATOM
  Coordinates
    Atom         X           Y           Z   (Angstrom)
    1.Kr        0.000000    0.000000    0.000000
 <Mar23-2019> <10:00:01>  >>>> CORORT
 <Mar23-2019> <10:00:01>  >>>> FITINT
 <Mar23-2019> <10:00:01>  >>>> CLSMAT
 <Mar23-2019> <10:00:01>  >>>> ORTHON
 <Mar23-2019> <10:00:01>  >>>> GENPT
 <Mar23-2019> <10:00:01>  Block Length= 102
 <Mar23-2019> <10:00:01>  >>>> PTBAS
 <Mar23-2019> <10:00:01>  >>>> CYCLE
 <Mar23-2019> <10:00:01>  CalcFitR12Fit
 <Mar23-2019> <10:00:01>  CalcFitCoeff
 <Mar23-2019> <10:00:02>              |Error|         MaxErr       Wt(A-DIIS)
 <Mar23-2019> <10:00:02>      1      0.00000000      0.00000000
 <Mar23-2019> <10:00:02>      2    163.73547578     25.44793979    100.0
 <Mar23-2019> <10:00:03>      3     53.62847565     15.91066010    100.0
 <Mar23-2019> <10:00:03>      4     11.17608910      2.21872154    100.0
 <Mar23-2019> <10:00:03>      5      7.83351790      2.07210566    100.0
 <Mar23-2019> <10:00:03>      6      2.82994134      0.56938697    100.0
 <Mar23-2019> <10:00:03>      7      1.88260346      0.40857381    100.0
 <Mar23-2019> <10:00:03>      8      1.07171309      0.23296971    100.0
 <Mar23-2019> <10:00:03>      9      0.50927550      0.11060544    100.0
 <Mar23-2019> <10:00:04>     10      0.29155691      0.06346282     63.1
 <Mar23-2019> <10:00:04>     11      0.06968450      0.01516265     14.3
 <Mar23-2019> <10:00:04>     12      0.00610779      0.00132765      0.3
 <Mar23-2019> <10:00:04>     13      0.00000828      0.00000183      0.0
 <Mar23-2019> <10:00:04>     14      0.00000012      0.00000002      0.0
 <Mar23-2019> <10:00:04>     15      0.00000001      0.00000000      0.0
 <Mar23-2019> <10:00:04>  SCF converged
 <Mar23-2019> <10:00:04>     16      0.00000000      0.00000000      0.0
 <Mar23-2019> <10:00:05>  >>>> POPAN
 <Mar23-2019> <10:00:05>  >>>> DEBYE
 <Mar23-2019> <10:00:05>  NORMAL TERMINATION
 <Mar23-2019> <10:00:05>  END


 Parallel Execution: Process Information
 ==============================================================================
 Rank   Node Name                              NodeID   MyNodeRank  NodeMaster
    0   vladimir-kubuntu                          0          0          0
    1   vladimir-kubuntu                          0          1         -1
    2   vladimir-kubuntu                          0          2         -1
    3   vladimir-kubuntu                          0          3         -1
 ==============================================================================


May use up to 7569MB of RAM as shared memory on node 0
 
Title Kr

ATOMS
 Kr        0.0000000000 0.0000000000 0.0000000000
END

CHARGE 0 0

XC
  HartreeFock
END

NUMERICALQUALITY excellent

EPRINT
  SFO NOEIG NOOVL NOORBPOP
  SCF NOPOP
END

NOPRINT BAS FUNCTIONS

TOTALENERGY
NOTOTEN

Fragments
Kr t21.Kr
End

 *******************************************************************************
 *                                                                             *
 *  -------------------------------------                                      *
 *   Amsterdam Density Functional  (ADF)         2018                          *
 *  -------------------------------------                                      *
 *                                               r70630 2018-11-24             *
 *                                                                             *
 *                                                                             *
 *                              =================                              *
 *                              |               |                              *
 *                              |     A D F     |                              *
 *                              |               |                              *
 *                              =================                              *
 *                                                                             *
 *                                                                             *
 *   Online information and documentation:  https://www.scm.com/support/       *
 *   E-mail:  support@scm.com   info@scm.com                                   *
 *                                                                             *
 *   Scientific publications using ADF results must be properly referenced     *
 *   See the User Manuals (or the web site) for recommended citations          *
 *   The terms and conditions of the End User License Agreement apply to       *
 *   the use of ADF, https://www.scm.com/license-terms/                        *
 *                                                                             *
 **********************  x86_64_linux_intel / intelmpi  ************************
 
 Licensed to: Mr. Vladimir Konjkov / Florida Institute of Technology / Melbourne / Florida / USA
 SCM User ID: u21173
  
 ADF 2018  RunTime: Mar23-2019 10:00:05  Nodes: 1  Procs: 4

 Temporary files are created in /tmp/kid_0.64750799


Communication costs MPI_COMM_WORLD:      0.333 usec per message,   0.0034 usec per 8-byte item
Communication costs for intra-node:      0.216 usec per message,   0.0037 usec per 8-byte item

 Kr



 ===========================
 A T T A C H E D   F I L E S
 ===========================
  



 ===============================
 M O D E L   P A R A M E T E R S
 ===============================
  
 DENSITY FUNCTIONAL POTENTIAL (scf)
    Hybrid:                            HARTREEFOCK                             == Not Default ==

 SPIN  (restricted / unrestr.)
    Molecule:                          Restricted                               
    Fragments:                         Restricted                               

 OTHER ASPECTS
    Relativistic Corrections:          ---                                      

    Nuclear Charge Density Model:      Point Charge Nuclei                      
    Core Treatment:                    Frozen Orbital(s)                        

    Hyperfine or Zeeman Interaction:   ---                                      


 Fragment File(s)
 ----------------
 Kr:
         file : t21.Kr
         jobid: ADF 2018  RunTime: Mar23-2019 10:00:00  Nodes: 1  Procs: 1
         title: Krypton (QZ, all electron, 15S 11P 6D 3F)



                                        ************************************
                                        *  R U N   T Y P E : SINGLE POINT  *
                                        ************************************
  



 ===============
 G E O M E T R Y  ***  Single Atom  ***
 ===============
  

 ATOMS
 =====                            X Y Z                    CHARGE
                                (Angstrom)             Nucl     +Core       At.Mass
                       --------------------------    ----------------       -------
    1  Kr              0.0000    0.0000    0.0000     36.00     36.00       83.9115


 FRAGMENTS
 =========                                     Atoms in this Fragment     Cart. coord.s (Angstrom)
                                               -------------------------------------------------------
    1  Kr                                                1  Kr           0.0000    0.0000    0.0000



 =====================================
 S Y M M E T R Y ,   E L E C T R O N S
 =====================================
  
 Symmetry: ATOM

 Irreducible Representations, including subspecies
 -------------------------------------------------
 S
 P:x  P:y  P:z
 D:z2  D:x2-y2  D:xy  D:xz  D:yz
 F:z3  F:z  F:xyz  F:z2x  F:z2y  F:x  F:y


 Configuration of Valence Electrons
 ==================================
 ( determined in the SCF procedure )

 Total:   36

 Net Charge: 0 (Nuclei minus Electrons)

 Aufbau principle for MO occupations will be applied through SCF cycle no.     150
 Thereafter, the program will assign electrons to MOs that are spatially
 similar to the occupied MOs in a "reference" cycle ("KeepOrbitals").
 The reference cycle is always the PREVIOUS cycle: it will evolve with
 the SCF procedure.



 =======
 S F O s  ***  (Symmetrized Fragment Orbitals)  ***
 =======
  
 SFOs are linear combinations of (valence) Fragment Orbitals (FOs), such that the SFOs transform as the
 irreducible representations of the (molecular) symmetry group. Each SFO is therefore characterized by
 an irrep of the molecule and by a few (or only one) generating FOs.
 The SFOs constitute a symmetry-adapted basis for the Fock matrix. The MO eigenvector coefficients in
 this basis provide a direct interpretation of the MOs in terms of Frontier Orbital Theory.

 The SFOs are combined with auxiliary Core Functions (CFs) to ensure orthogonalization on the (frozen)
 Core Orbitals (COs). The Core-orthogonalized SFOs (CSFOs) constitute the true Fock basis.

 The FOs, and hence also the (C)SFOs are combinations of the elementary basis functions (BAS). The basis
 functions that participate in the description of the SFOs depend on the irrep. The indices of the
 involved functions are printed below for each irrep.
 (The complete list of primitive basis functions is printed in another section)

 Total nr. of (C)SFOs (summation over all irreps) :    99

 NOTE: a (C)SFO that is defined as a combination of more than one FO is usually NOT normalized.



                                       === S ===
 Nr. of SFOs :   15
 Cartesian basis functions that participate in this irrep (total number =    15) :
      1     2     3     4     5     6     7     8     9    10
     11    12    13    14    15

    SFO  (index         Fragment          Generating    Expansion in Fragment Orbitals
  indx  incl.CFs)   Occup   Orb.Energy   FragmentType  Coeff.   Orbital     on Fragment
 --------------------------------------------------------------------------------------
     1       1      2.000    -520.167 au  Kr            1.00      1 S               1
                        (  -14154.465 eV)
     2       2      2.000     -69.903 au  Kr            1.00      2 S               1
                        (   -1902.158 eV)
     3       3      2.000     -10.850 au  Kr            1.00      3 S               1
                        (    -295.230 eV)
     4       4      2.000      -1.153 au  Kr            1.00      4 S               1
                        (     -31.373 eV)
     5       5       --         0.064 au  Kr            1.00      5 S               1
                        (       1.746 eV)
     6       6       --         0.435 au  Kr            1.00      6 S               1
                        (      11.840 eV)
     7       7       --         1.687 au  Kr            1.00      7 S               1
                        (      45.893 eV)
     8       8       --         5.081 au  Kr            1.00      8 S               1
                        (     138.254 eV)
     9       9       --        14.370 au  Kr            1.00      9 S               1
                        (     391.035 eV)
    10      10       --        41.491 au  Kr            1.00     10 S               1
                        (    1129.029 eV)
    11      11       --       129.079 au  Kr            1.00     11 S               1
                        (    3512.411 eV)
    12      12       --       471.773 au  Kr            1.00     12 S               1
                        (   12837.604 eV)
    13      13       --      2113.876 au  Kr            1.00     13 S               1
                        (   57521.483 eV)
    14      14       --     14016.231 au  Kr            1.00     14 S               1
                        (  381401.039 eV)
    15      15       --    192428.439 au  Kr            1.00     15 S               1
                        ( 5236244.251 eV)



                                       === P:x ===
 Nr. of SFOs :   11
 Cartesian basis functions that participate in this irrep (total number =    11) :
     16    19    22    25    28    31    34    37    40    43
     46

    SFO  (index         Fragment          Generating    Expansion in Fragment Orbitals
  indx  incl.CFs)   Occup   Orb.Energy   FragmentType  Coeff.   Orbital     on Fragment
 --------------------------------------------------------------------------------------
     1       1      2.000     -63.010 au  Kr            1.00      1 P:x             1
                        (   -1714.583 eV)
     2       2      2.000      -8.332 au  Kr            1.00      2 P:x             1
                        (    -226.715 eV)
     3       3      2.000      -0.524 au  Kr            1.00      3 P:x             1
                        (     -14.263 eV)
     4       4       --         0.193 au  Kr            1.00      4 P:x             1
                        (       5.248 eV)
     5       5       --         0.914 au  Kr            1.00      5 P:x             1
                        (      24.873 eV)
     6       6       --         3.109 au  Kr            1.00      6 P:x             1
                        (      84.590 eV)
     7       7       --         9.757 au  Kr            1.00      7 P:x             1
                        (     265.514 eV)
     8       8       --        32.430 au  Kr            1.00      8 P:x             1
                        (     882.474 eV)
     9       9       --       128.254 au  Kr            1.00      9 P:x             1
                        (    3489.977 eV)
    10      10       --       705.548 au  Kr            1.00     10 P:x             1
                        (   19198.950 eV)
    11      11       --      6865.508 au  Kr            1.00     11 P:x             1
                        (  186819.967 eV)



                                       === P:y ===
 Nr. of SFOs :   11
 Cartesian basis functions that participate in this irrep (total number =    11) :
     17    20    23    26    29    32    35    38    41    44
     47

    SFO  (index         Fragment          Generating    Expansion in Fragment Orbitals
  indx  incl.CFs)   Occup   Orb.Energy   FragmentType  Coeff.   Orbital     on Fragment
 --------------------------------------------------------------------------------------
     1       1      2.000     -63.010 au  Kr            1.00      1 P:y             1
                        (   -1714.583 eV)
     2       2      2.000      -8.332 au  Kr            1.00      2 P:y             1
                        (    -226.715 eV)
     3       3      2.000      -0.524 au  Kr            1.00      3 P:y             1
                        (     -14.263 eV)
     4       4       --         0.193 au  Kr            1.00      4 P:y             1
                        (       5.248 eV)
     5       5       --         0.914 au  Kr            1.00      5 P:y             1
                        (      24.873 eV)
     6       6       --         3.109 au  Kr            1.00      6 P:y             1
                        (      84.590 eV)
     7       7       --         9.757 au  Kr            1.00      7 P:y             1
                        (     265.514 eV)
     8       8       --        32.430 au  Kr            1.00      8 P:y             1
                        (     882.474 eV)
     9       9       --       128.254 au  Kr            1.00      9 P:y             1
                        (    3489.977 eV)
    10      10       --       705.548 au  Kr            1.00     10 P:y             1
                        (   19198.950 eV)
    11      11       --      6865.508 au  Kr            1.00     11 P:y             1
                        (  186819.967 eV)



                                       === P:z ===
 Nr. of SFOs :   11
 Cartesian basis functions that participate in this irrep (total number =    11) :
     18    21    24    27    30    33    36    39    42    45
     48

    SFO  (index         Fragment          Generating    Expansion in Fragment Orbitals
  indx  incl.CFs)   Occup   Orb.Energy   FragmentType  Coeff.   Orbital     on Fragment
 --------------------------------------------------------------------------------------
     1       1      2.000     -63.010 au  Kr            1.00      1 P:z             1
                        (   -1714.583 eV)
     2       2      2.000      -8.332 au  Kr            1.00      2 P:z             1
                        (    -226.715 eV)
     3       3      2.000      -0.524 au  Kr            1.00      3 P:z             1
                        (     -14.263 eV)
     4       4       --         0.193 au  Kr            1.00      4 P:z             1
                        (       5.248 eV)
     5       5       --         0.914 au  Kr            1.00      5 P:z             1
                        (      24.873 eV)
     6       6       --         3.109 au  Kr            1.00      6 P:z             1
                        (      84.590 eV)
     7       7       --         9.757 au  Kr            1.00      7 P:z             1
                        (     265.514 eV)
     8       8       --        32.430 au  Kr            1.00      8 P:z             1
                        (     882.474 eV)
     9       9       --       128.254 au  Kr            1.00      9 P:z             1
                        (    3489.977 eV)
    10      10       --       705.548 au  Kr            1.00     10 P:z             1
                        (   19198.950 eV)
    11      11       --      6865.508 au  Kr            1.00     11 P:z             1
                        (  186819.967 eV)



                                       === D:z2 ===
 Nr. of SFOs :    6
 Cartesian basis functions that participate in this irrep (total number =    18) :
     49    52    54    55    58    60    61    64    66    67
     70    72    73    76    78    79    82    84

    SFO  (index         Fragment          Generating    Expansion in Fragment Orbitals
  indx  incl.CFs)   Occup   Orb.Energy   FragmentType  Coeff.   Orbital     on Fragment
 --------------------------------------------------------------------------------------
     1       1      2.000      -3.825 au  Kr            1.00      1 D:z2            1
                        (    -104.096 eV)
     2       2       --         0.269 au  Kr            1.00      2 D:z2            1
                        (       7.328 eV)
     3       3       --         0.908 au  Kr            1.00      3 D:z2            1
                        (      24.700 eV)
     4       4       --         3.938 au  Kr            1.00      4 D:z2            1
                        (     107.168 eV)
     5       5       --        17.783 au  Kr            1.00      5 D:z2            1
                        (     483.906 eV)
     6       6       --       105.459 au  Kr            1.00      6 D:z2            1
                        (    2869.678 eV)



                                       === D:x2-y2 ===
 Nr. of SFOs :    6
 Cartesian basis functions that participate in this irrep (total number =    12) :
     49    52    55    58    61    64    67    70    73    76
     79    82

    SFO  (index         Fragment          Generating    Expansion in Fragment Orbitals
  indx  incl.CFs)   Occup   Orb.Energy   FragmentType  Coeff.   Orbital     on Fragment
 --------------------------------------------------------------------------------------
     1       1      2.000      -3.825 au  Kr            1.00      1 D:x2-y2         1
                        (    -104.096 eV)
     2       2       --         0.269 au  Kr            1.00      2 D:x2-y2         1
                        (       7.328 eV)
     3       3       --         0.908 au  Kr            1.00      3 D:x2-y2         1
                        (      24.700 eV)
     4       4       --         3.938 au  Kr            1.00      4 D:x2-y2         1
                        (     107.168 eV)
     5       5       --        17.783 au  Kr            1.00      5 D:x2-y2         1
                        (     483.906 eV)
     6       6       --       105.459 au  Kr            1.00      6 D:x2-y2         1
                        (    2869.678 eV)



                                       === D:xy ===
 Nr. of SFOs :    6
 Cartesian basis functions that participate in this irrep (total number =     6) :
     50    56    62    68    74    80

    SFO  (index         Fragment          Generating    Expansion in Fragment Orbitals
  indx  incl.CFs)   Occup   Orb.Energy   FragmentType  Coeff.   Orbital     on Fragment
 --------------------------------------------------------------------------------------
     1       1      2.000      -3.825 au  Kr            1.00      1 D:xy            1
                        (    -104.096 eV)
     2       2       --         0.269 au  Kr            1.00      2 D:xy            1
                        (       7.328 eV)
     3       3       --         0.908 au  Kr            1.00      3 D:xy            1
                        (      24.700 eV)
     4       4       --         3.938 au  Kr            1.00      4 D:xy            1
                        (     107.168 eV)
     5       5       --        17.783 au  Kr            1.00      5 D:xy            1
                        (     483.906 eV)
     6       6       --       105.459 au  Kr            1.00      6 D:xy            1
                        (    2869.678 eV)



                                       === D:xz ===
 Nr. of SFOs :    6
 Cartesian basis functions that participate in this irrep (total number =     6) :
     51    57    63    69    75    81

    SFO  (index         Fragment          Generating    Expansion in Fragment Orbitals
  indx  incl.CFs)   Occup   Orb.Energy   FragmentType  Coeff.   Orbital     on Fragment
 --------------------------------------------------------------------------------------
     1       1      2.000      -3.825 au  Kr            1.00      1 D:xz            1
                        (    -104.096 eV)
     2       2       --         0.269 au  Kr            1.00      2 D:xz            1
                        (       7.328 eV)
     3       3       --         0.908 au  Kr            1.00      3 D:xz            1
                        (      24.700 eV)
     4       4       --         3.938 au  Kr            1.00      4 D:xz            1
                        (     107.168 eV)
     5       5       --        17.783 au  Kr            1.00      5 D:xz            1
                        (     483.906 eV)
     6       6       --       105.459 au  Kr            1.00      6 D:xz            1
                        (    2869.678 eV)



                                       === D:yz ===
 Nr. of SFOs :    6
 Cartesian basis functions that participate in this irrep (total number =     6) :
     53    59    65    71    77    83

    SFO  (index         Fragment          Generating    Expansion in Fragment Orbitals
  indx  incl.CFs)   Occup   Orb.Energy   FragmentType  Coeff.   Orbital     on Fragment
 --------------------------------------------------------------------------------------
     1       1      2.000      -3.825 au  Kr            1.00      1 D:yz            1
                        (    -104.096 eV)
     2       2       --         0.269 au  Kr            1.00      2 D:yz            1
                        (       7.328 eV)
     3       3       --         0.908 au  Kr            1.00      3 D:yz            1
                        (      24.700 eV)
     4       4       --         3.938 au  Kr            1.00      4 D:yz            1
                        (     107.168 eV)
     5       5       --        17.783 au  Kr            1.00      5 D:yz            1
                        (     483.906 eV)
     6       6       --       105.459 au  Kr            1.00      6 D:yz            1
                        (    2869.678 eV)



                                       === F:z3 ===
 Nr. of SFOs :    3
 Cartesian basis functions that participate in this irrep (total number =     9) :
     87    92    94    97   102   104   107   112   114

    SFO  (index         Fragment          Generating    Expansion in Fragment Orbitals
  indx  incl.CFs)   Occup   Orb.Energy   FragmentType  Coeff.   Orbital     on Fragment
 --------------------------------------------------------------------------------------
     1       1       --         0.395 au  Kr            1.00      1 F:z3            1
                        (      10.747 eV)
     2       2       --         1.474 au  Kr            1.00      2 F:z3            1
                        (      40.123 eV)
     3       3       --         4.647 au  Kr            1.00      3 F:z3            1
                        (     126.464 eV)



                                       === F:z ===
 Nr. of SFOs :    3
 Cartesian basis functions that participate in this irrep (total number =     6) :
     87    92    97   102   107   112

    SFO  (index         Fragment          Generating    Expansion in Fragment Orbitals
  indx  incl.CFs)   Occup   Orb.Energy   FragmentType  Coeff.   Orbital     on Fragment
 --------------------------------------------------------------------------------------
     1       1       --         0.395 au  Kr            1.00      1 F:z             1
                        (      10.747 eV)
     2       2       --         1.474 au  Kr            1.00      2 F:z             1
                        (      40.123 eV)
     3       3       --         4.647 au  Kr            1.00      3 F:z             1
                        (     126.464 eV)



                                       === F:xyz ===
 Nr. of SFOs :    3
 Cartesian basis functions that participate in this irrep (total number =     3) :
     89    99   109

    SFO  (index         Fragment          Generating    Expansion in Fragment Orbitals
  indx  incl.CFs)   Occup   Orb.Energy   FragmentType  Coeff.   Orbital     on Fragment
 --------------------------------------------------------------------------------------
     1       1       --         0.395 au  Kr            1.00      1 F:xyz           1
                        (      10.747 eV)
     2       2       --         1.474 au  Kr            1.00      2 F:xyz           1
                        (      40.123 eV)
     3       3       --         4.647 au  Kr            1.00      3 F:xyz           1
                        (     126.464 eV)



                                       === F:z2x ===
 Nr. of SFOs :    3
 Cartesian basis functions that participate in this irrep (total number =     9) :
     85    88    90    95    98   100   105   108   110

    SFO  (index         Fragment          Generating    Expansion in Fragment Orbitals
  indx  incl.CFs)   Occup   Orb.Energy   FragmentType  Coeff.   Orbital     on Fragment
 --------------------------------------------------------------------------------------
     1       1       --         0.395 au  Kr            1.00      1 F:z2x           1
                        (      10.747 eV)
     2       2       --         1.474 au  Kr            1.00      2 F:z2x           1
                        (      40.123 eV)
     3       3       --         4.647 au  Kr            1.00      3 F:z2x           1
                        (     126.464 eV)



                                       === F:z2y ===
 Nr. of SFOs :    3
 Cartesian basis functions that participate in this irrep (total number =     9) :
     86    91    93    96   101   103   106   111   113

    SFO  (index         Fragment          Generating    Expansion in Fragment Orbitals
  indx  incl.CFs)   Occup   Orb.Energy   FragmentType  Coeff.   Orbital     on Fragment
 --------------------------------------------------------------------------------------
     1       1       --         0.395 au  Kr            1.00      1 F:z2y           1
                        (      10.747 eV)
     2       2       --         1.474 au  Kr            1.00      2 F:z2y           1
                        (      40.123 eV)
     3       3       --         4.647 au  Kr            1.00      3 F:z2y           1
                        (     126.464 eV)



                                       === F:x ===
 Nr. of SFOs :    3
 Cartesian basis functions that participate in this irrep (total number =     6) :
     85    88    95    98   105   108

    SFO  (index         Fragment          Generating    Expansion in Fragment Orbitals
  indx  incl.CFs)   Occup   Orb.Energy   FragmentType  Coeff.   Orbital     on Fragment
 --------------------------------------------------------------------------------------
     1       1       --         0.395 au  Kr            1.00      1 F:x             1
                        (      10.747 eV)
     2       2       --         1.474 au  Kr            1.00      2 F:x             1
                        (      40.123 eV)
     3       3       --         4.647 au  Kr            1.00      3 F:x             1
                        (     126.464 eV)



                                       === F:y ===
 Nr. of SFOs :    3
 Cartesian basis functions that participate in this irrep (total number =     6) :
     86    91    96   101   106   111

    SFO  (index         Fragment          Generating    Expansion in Fragment Orbitals
  indx  incl.CFs)   Occup   Orb.Energy   FragmentType  Coeff.   Orbital     on Fragment
 --------------------------------------------------------------------------------------
     1       1       --         0.395 au  Kr            1.00      1 F:y             1
                        (      10.747 eV)
     2       2       --         1.474 au  Kr            1.00      2 F:y             1
                        (      40.123 eV)
     3       3       --         4.647 au  Kr            1.00      3 F:y             1
                        (     126.464 eV)

 Total number of charge fitting functions (nprimf)       353
 Total number of Cartesian basis functions (naos)        114
 Total number of Cartesian core functions  (ncos)          0

1
 ***************************************************************************************************



                                              ***********************
                                              *  T E C H N I C A L  *
                                              ***********************
  



 =============================================================
 P A R A L L E L I Z A T I O N  and  V E C T O R I Z A T I O N
 =============================================================
  
 Nr of parallel processes:                                4
 Maximum vector length in NumInt loops:                 128

 IO buffersize (Mb):                                     64.000000



 =====================
 S C F   U P D A T E S
 =====================
  
 Max. nr. of cycles:                               300
 Convergence criterion:                              0.0000010000
   secondary criterion:                              0.0010000000

 Mix parameter (when DIIS does not apply):           0.2000000000
 Mixed ADIIS+DIIS will be used
    Max number of expansion vectors:                10
    Pure ADIIS when Max([F,P]) is above              0.1000000000
    Pure DIIS when Max([F,P]) is below               0.0010000000
 Automatic ElectronSmearing (in case of problematic SCF convergence) disabled



 =================
 P R E C I S I O N  ***  (General: NumInt, NeglectFunctionTails, ...)  ***
 =================
  

 NumInt:           Target precision:                10.0000000000
 -------           Initial precision:               10.0000000000
                   Min. precision (optimization):   10.0000000000

 Neglect Functions:          Basis functions:        0.1000000000E-11
 ------------------          Fit functions:          0.1000000000E-11



 ===========================
 L I N E A R   S C A L I N G
 ===========================
  

 Cut-off radii density fit:                        0.1000000000E-13
 Overlap cut-off criterion AO matrix elements:     0.1000000000E-11
 Cut-offs for Coulomb potential and fitted density:0.1000000000E-13
 Cut-off criterion for Coulomb multipole terms:    0.1000000000E-13
 Progressive Convergence parameter:                 0.000000000    
1
 ***************************************************************************************************



                                            ***************************
                                            *  C O M P U T A T I O N  *
                                            ***************************
  

 Number of elements of the density matrix on this node (used, total):      6555      6555



 ===========================================
 Numerical Integration : Fuzzy Cells (Becke)
 ===========================================
  
 Becke grid quality: EXCELLENT      
  
 Lebedev angular grid order:             min:  17 max:  47
 Nr. of radial points:                   min: 322 max: 322

 Total nr. of points:        322
 Nr. of blocks:                3
 Block length:               108
 Nr. of dummy points:          2


 Test of Precision of the Numerical Integration Grid
 ===================================================

 Integral of the Total Core Density:                   0.00000000000000



 ========================
 Density Fitting (zlmFit)
 ========================
  
 ZlmFit Fit Quality: EXCELLENT      
  
 Max L-expansion:                        min:  15 max:  15
 Nr. of radial interpolation points:     min: 644 max: 644



 ======================
 RI Hartree-Fock Scheme
 ======================
  
 Fit Set Quality     : EXCELLENT
 Integration Quality : EXCELLENT
 Threshold Quality   : EXCELLENT
 Response Quality    : DEFAULT
 Is Range Separated  :  F
 
 RIHartreeFock Dependency: number of modified vectors:           1



 =====
 S C F  ***  ScaSCF  ***
 =====
  
 Initial density matrix is calculated as sum of fragments

 CYCLE    1
 Orbital Data from active fragment used
 SCF Error: norm([F,P])=      0.206313730608, max([F,P])=      0.049459472736
 orbitals (Q,E):
 ---------------
 S :1...14           ( 2.00  -520.1670)  ( 2.00   -69.9030)  ( 2.00   -10.8495)  ( 2.00    -1.1529)
                     ( 0.00     0.0642)  ( 0.00     0.4352)  ( 0.00     1.6871)  ( 0.00     5.0832)
                     ( 0.00    14.3753)  ( 0.00    41.4934)  ( 0.00   129.0841)  ( 0.00   471.7873)
                     ( 0.00  2113.9089)  ( 0.00 14016.1967)
 P :1...11           ( 6.00   -63.0096)  ( 6.00    -8.3317)  ( 6.00    -0.5242)  ( 0.00     0.1930)
                     ( 0.00     0.9180)  ( 0.00     3.1231)  ( 0.00     9.8336)  ( 0.00    32.4775)
                     ( 0.00   128.0990)  ( 0.00   705.2432)  ( 0.00  6866.5184)
 D :1...6            (10.00    -3.8254)  ( 0.00     0.2693)  ( 0.00     0.9077)  ( 0.00     3.9384)
                     ( 0.00    17.7832)  ( 0.00   105.4585)
 F :1...3            ( 0.00     0.3949)  ( 0.00     1.4745)  ( 0.00     4.6359)

 CYCLE    2
  SDIIS (wt  0.000): -0.0113  1.0113
 A-DIIS (wt  1.000):  0.0000  1.0000
  DIIS coefficients:  0.0000  1.0000
 SCF Error: norm([F,P])=      0.003446447957, max([F,P])=      0.001111716608
 orbitals (Q,E):
 ---------------
 S :1...5            ( 2.00  -520.1665)  ( 2.00   -69.9030)  ( 2.00   -10.8492)  ( 2.00    -1.1529)
                     ( 0.00     0.0642)
 P :1...4            ( 6.00   -63.0096)  ( 6.00    -8.3314)  ( 6.00    -0.5242)  ( 0.00     0.1930)
[...]
                        -----      --------------------        ------       --------------------------
 S
               1        2.000     -0.52016661295026E+03    -14154.454              -5.09E-06
               2        2.000     -0.69903043863503E+02     -1902.159              -4.65E-06
               3        2.000     -0.10849255323471E+02      -295.223              -4.37E-06
               4        2.000     -0.11529334098596E+01       -31.373              -1.61E-06
               5        0.000      0.64172342269866E-01         1.746
               6        0.000      0.43518886579862E+00        11.842
               7        0.000      0.16871071298748E+01        45.909
               8        0.000      0.50832108327541E+01       138.321
               9        0.000      0.14375508916474E+02       391.178
              10        0.000      0.41493513116378E+02      1129.096
              11        0.000      0.12908408882525E+03      3512.557
              12        0.000      0.47178740653848E+03     12837.989
              13        0.000      0.21139092869115E+04     57522.398
              14        0.000      0.14016197157437E+05    381400.130
 P
               1        6.000     -0.63009686611481E+02     -1714.581              -4.71E-06
               2        6.000     -0.83314685233724E+01      -226.711              -4.40E-06
               3        6.000     -0.52417960497832E+00       -14.264              -1.44E-06
               4        0.000      0.19303245914609E+00         5.253
               5        0.000      0.91803190992178E+00        24.981
               6        0.000      0.31231346617249E+01        84.985
               7        0.000      0.98336925643250E+01       267.588
               8        0.000      0.32477700013781E+02       883.763
               9        0.000      0.12809900677747E+03      3485.751
              10        0.000      0.70524350301526E+03     19190.652
              11        0.000      0.68665188156727E+04    186847.484
 D
               1       10.000     -0.38252263627769E+01      -104.090              -4.44E-06
               2        0.000      0.26928860577181E+00         7.328
               3        0.000      0.90773110165404E+00        24.701
               4        0.000      0.39383637802674E+01       107.168
               5        0.000      0.17783241678999E+02       483.907
               6        0.000      0.10545856866589E+03      2869.674
 F
               1        0.000      0.39493283226489E+00        10.747
               2        0.000      0.14744612378073E+01        40.122
               3        0.000      0.46359408986362E+01       126.150
  
 HOMO :        3 P                -0.52417960497832E+00
 LUMO :        5 S                 0.64172342269866E-01
  


 Orbital Energies, all Irreps
 ========================================

 Irrep        no.  (spin)   Occup              E (au)                E (eV)
 ---------------------------------------------------------------------------
 S             1             2.00       -0.52016661295026E+03    -14154.4537
 S             2             2.00       -0.69903043863503E+02     -1902.1586
 P             1             6.00       -0.63009686611481E+02     -1714.5808
 S             3             2.00       -0.10849255323471E+02      -295.2233
 P             2             6.00       -0.83314685233724E+01      -226.7108
 D             1            10.00       -0.38252263627769E+01      -104.0897
 S             4             2.00       -0.11529334098596E+01       -31.3729
 P             3             6.00       -0.52417960497832E+00       -14.2637
 S             5             0.00        0.64172342269866E-01         1.7462
 P             4             0.00        0.19303245914609E+00         5.2527
 D             2             0.00        0.26928860577181E+00         7.3277
 F             1             0.00        0.39493283226489E+00        10.7467
 S             6             0.00        0.43518886579862E+00        11.8421
 D             3             0.00        0.90773110165404E+00        24.7006
 P             5             0.00        0.91803190992178E+00        24.9809
 F             2             0.00        0.14744612378073E+01        40.1221
 S             7             0.00        0.16871071298748E+01        45.9085
 P             6             0.00        0.31231346617249E+01        84.9848
 D             4             0.00        0.39383637802674E+01       107.1683
 F             3             0.00        0.46359408986362E+01       126.1504
 S             8             0.00        0.50832108327541E+01       138.3212
 P             7             0.00        0.98336925643250E+01       267.5884
 S             9             0.00        0.14375508916474E+02       391.1775
 D             5             0.00        0.17783241678999E+02       483.9066
 P             8             0.00        0.32477700013781E+02       883.7632
 S            10             0.00        0.41493513116378E+02      1129.0959
 D             6             0.00        0.10545856866589E+03      2869.6737
 P             9             0.00        0.12809900677747E+03      3485.7513
 S            11             0.00        0.12908408882525E+03      3512.5568
 S            12             0.00        0.47178740653848E+03     12837.9885
 P            10             0.00        0.70524350301526E+03     19190.6521
 S            13             0.00        0.21139092869115E+04     57522.3985
 P            11             0.00        0.68665188156727E+04    186847.4838
 S            14             0.00        0.14016197157437E+05    381400.1304
 S            15             0.00        0.19242791267649E+06   5236229.9252


 All Electron Calculation, thus no Orbital Energies of the Core Orbitals are calculated



 =======================
 T O T A L   E N E R G Y  ***  (contributions)  ***
 =======================
  

*** Note ***

The requirements to the integration accuracy are somewhat higher than for bond energies.
One can expect an accuracy of roughly (accint-2) decimal places, where accint is the
general integration accuracy parameter.
The Coulomb energy is the sum of the Hartree energy (electron-electron Coulomb interaction)
and the nuclear-electron attraction energy. It includes the correction for the first-order
fit error in the Hartree energy.
The potential energy is the sum of the nuclear repulsion energy, the Coulomb energy,
and the exchange-correlation energy.

Kinetic energy           =         2752.036033204156

Nuclear repulsion energy =            0.000000000000
Coulomb energy           =        -5410.233132891947
XC energy                =          -93.856557765625
Total potential energy   =        -5504.089690657573

----------------------------------------------------
Total energy             =        -2752.053657453416
Virial theorem           =            2.000006404076
----------------------------------------------------

 Gross Charges per Atom (Z minus electrons)
 ==========================================
             0.0000
 Net Total:  0.00000000



 =================================================================
 M U L T I P O L E   D E R I V E D   C H A R G E   A N A L Y S I S
 =================================================================

 This charge analysis uses the atomic multipoles (obtained from the fitted density) up to some level X,
 and reconstructs these multipoles exactly (up to level X) by distributing charges over all atoms.
 This is achieved by using Lagrange multipliers and a weight function to keep the multipoles local.

 Dummy atoms can be included (by setting INCDUM in MDC-block to 1) to obtain a fractional charge.
 This is generally useful and necessary only for small symmetrical molecules, when there are not
 enough degrees of freedom to reconstruct the multipoles.

 Since the atomic multipoles are reconstructed up to level X,
 the molecular multipoles are represented also up to level X.
 The recommended level is to reconstruct up to quadrupole : -> MDC-q charges.

 See: M. Swart, P.Th. van Duijnen, J.G. Snijders, J.Comput.Chem., (2001), p. 79-88.

 ------------------------------------------------------------- 
 Atomic electronic multipole moments from SCF equations (a.u.)
 ------------------------------------------------------------- 

   atom        charge        dip-x     dip-y     dip-z      quad-xx   quad-xy   quad-xz   quad-yy   quad-yz   quad-zz
 --------------------------------------------------------------------------------------------------------------------
    1 Kr     0.000000     0.000000  0.000000  0.000000    -0.000000  0.000000 -0.000000 -0.000000 -0.000000  0.000000

 --------------------------------------- 
 Multipole derived atomic charges (a.u.)
 --------------------------------------- 

 The MDC-m charges are just the Monopole terms in the multipole expansion, while for the MDC-d charges
 also the Dipoles are reconstructed. The usually preferred charges are the MDC-q charges.
 These reconstruct the Monopoles, Dipoles and Quadrupoles (both atomic AND molecular).

        Atom    Level:     MDC-m        MDC-d        MDC-q
 ---------------------------------------------------------
     1     Kr           0.000000     0.000000     0.000000

 ------------------------------------------------ 
 Average absolute deviations in atomic multipoles
 ------------------------------------------------ 

 Stated here are the average differences between the atomic multipoles
 and the reconstructed atomic multipoles (from the distributed charges).
 If these values are not zero, this means there are not enough degrees of freedom,
 to be able to reconstruct the atomic multipoles. (This usually happens only
 for small and/or highly symmetric molecules). If this is the case, one could add
 dummy atoms as extra point charges (and setting INCDUM in MDC-block to 1).

 Level:                                 MDC-d        MDC-q
 ---------------------------------------------------------
 Charge   (a.u.)                       0.0000       0.0000
 Dipole   (Debye)                      0.0000       0.0000
 Quad.    (a.u.)                       0.0000       0.0000

 --------------------------------------- 
 Represented molecular multipole moments
 --------------------------------------- 

 Given here are the Molecular multipole moments from the atomic charges, and from the Fit Density.
 Note that the atomic charges represent the latter, NOT the ones from the Exact density.

            Q (a.u.)             Dipole moment (Debye)                                          Quadrupole moment (a.u.)
                                 x         y         z              xx        xy        xz        yy        yz        zz
------------------------------------------------------------------------------------------------------------------------
MDC-m         0.0000        0.0000    0.0000    0.0000          0.0000    0.0000    0.0000    0.0000    0.0000    0.0000
MDC-d         0.0000        0.0000    0.0000    0.0000          0.0000    0.0000    0.0000    0.0000    0.0000    0.0000
MDC-q         0.0000        0.0000    0.0000    0.0000          0.0000    0.0000    0.0000    0.0000    0.0000    0.0000
 
Fit.Dens.     0.0000        0.0000    0.0000    0.0000         -0.0000    0.0000   -0.0000   -0.0000   -0.0000    0.0000



 =============
 Dipole Moment  ***  (Debye)  ***
 =============
  
 Vector   :         0.00000000      0.00000000      0.00000000
 Magnitude:         0.00000000

 This molecular dipole moment is calculated with analytic integration



 =========================================
 Quadrupole Moment (Buckingham convention)  ***  (a.u.)  ***
 =========================================
  
      quad-xx        quad-xy        quad-xz        quad-yy        quad-yz        quad-zz
     -0.00000000     0.00000000     0.00000000     0.00000000     0.00000000     0.00000000

 This molecular quadrupole moment is calculated with analytic integration



 =======================================================================
 Electrostatic potential at the Nuclei due to electrons and other nuclei
 =======================================================================
  
         Atom                  Potential
         ----                  ---------
     1)   Kr                182.84812750
 
 
 ========================
 No memory problems found
 ========================
 
 Maximum number of active allocate calls:         722
 
 *******************************************************************************

                             A D F   E X I T
 NORMAL TERMINATION



 =================
 Timing Statistics
 =================
  
 Total Used :                     CPU=       17.18      System=        0.47     Elapsed=       18.08

 Calls  Section                     ( Mean, Percentage )
 ---------------------------------------------------------------------------------------------------
     3  ><      ................      0.00    0.01             0.00    0.23             0.00    0.01
     1  INIT    ................      0.43    2.53             0.01    1.48             0.75    4.14
     1  GEOMET  ................      0.04    0.20             0.03    5.73             0.06    0.34
     1  FRAGM   ................      0.01    0.07             0.00    0.15             0.01    0.07
     1  INPUTA  ................      0.00    0.01             0.00    0.06             0.00    0.01
     1  ATDEN   ................      0.00    0.03             0.00    0.65             0.01    0.04
     1  MAINSY  ................      0.02    0.10             0.00    0.21             0.02    0.10
     1  SYMFIT  ................      0.00    0.01             0.00    0.00             0.00    0.01
     1  CORORT  ................      0.00    0.01             0.00    0.00             0.00    0.01
     1  SYMORB  ................      0.00    0.02             0.00    0.00             0.00    0.02
     1  FITINT  ................      0.06    0.36             0.00    0.20             0.06    0.35
     1  CLSMAT  ................      0.00    0.01             0.00    0.01             0.00    0.01
     1  ORTHON  ................      0.01    0.05             0.00    0.38             0.01    0.06
     1  GENPT   ................      0.03    0.19             0.00    0.26             0.03    0.19
     1  PTBAS   ................      0.01    0.04             0.00    0.41             0.01    0.05
     7  FOCKY   ................      2.05   83.36             0.05   78.89             2.11   81.55
     7  FOCKTR  ................      0.00    0.16             0.00    3.31             0.01    0.24
     7  SDIIS   ................      0.00    0.13             0.00    0.44             0.00    0.13
     1  COREPS  ................      2.05   11.93             0.02    4.41             2.14   11.82
     1  POPAN   ................      0.08    0.45             0.01    1.71             0.09    0.48
     1  DEBYE   ................      0.00    0.01             0.00    0.42             0.00    0.03
     1  EXIT PROCEDURE .........      0.05    0.31             0.01    1.07             0.06    0.34


 Currently Open Files (EXIT00)
 ====================

 Unit    Access Format  Status   Type       Ident (file)
 -------------------------------------------------------
   3      SEQ    FORM   TRANSP  NORMAL      LOGFILE
                                          ( logfile )


 Buffered I/O statistics
 =======================
 Memory available:                     67108864
 Number of records fitting in memory:     16131
 Input :   0.1% of                       107349  *4k bytes
 Output:   2.9% of                        20577  *4k bytes
 Records from serial files evicted:        3094
                    others evicted:         -12
 Hash table lookups:     270867 with      26121 conflicts (  9.64%)

 ***************************************************************************************************
 (LOGFILE)
 <Mar23-2019> <10:00:00>  ADF 2018  RunTime: Mar23-2019 10:00:00  Nodes: 1  Procs: 1
 <Mar23-2019> <10:00:00>  Krypton (QZ, all electron, 15S 11P 6D 3F)
 <Mar23-2019> <10:00:01>  RunType   : CREATE
 <Mar23-2019> <10:00:01>  Net Charge: 0 (Nuclei minus Electrons)
 <Mar23-2019> <10:00:01>  Symmetry  : ATOM
  Coordinates
    Atom         X           Y           Z   (Angstrom)
    1.Kr        0.000000    0.000000    0.000000
 <Mar23-2019> <10:00:01>  >>>> CORORT
 <Mar23-2019> <10:00:01>  >>>> FITINT
 <Mar23-2019> <10:00:01>  >>>> CLSMAT
 <Mar23-2019> <10:00:01>  >>>> ORTHON
 <Mar23-2019> <10:00:01>  >>>> GENPT
 <Mar23-2019> <10:00:01>  Block Length= 102
 <Mar23-2019> <10:00:01>  >>>> PTBAS
 <Mar23-2019> <10:00:01>  >>>> CYCLE
 <Mar23-2019> <10:00:01>  CalcFitR12Fit
 <Mar23-2019> <10:00:01>  CalcFitCoeff
 <Mar23-2019> <10:00:02>              |Error|         MaxErr       Wt(A-DIIS)
 <Mar23-2019> <10:00:02>      1      0.00000000      0.00000000
 <Mar23-2019> <10:00:02>      2    163.73547578     25.44793979    100.0
 <Mar23-2019> <10:00:03>      3     53.62847565     15.91066010    100.0
 <Mar23-2019> <10:00:03>      4     11.17608910      2.21872154    100.0
 <Mar23-2019> <10:00:03>      5      7.83351790      2.07210566    100.0
 <Mar23-2019> <10:00:03>      6      2.82994134      0.56938697    100.0
 <Mar23-2019> <10:00:03>      7      1.88260346      0.40857381    100.0
 <Mar23-2019> <10:00:03>      8      1.07171309      0.23296971    100.0
 <Mar23-2019> <10:00:03>      9      0.50927550      0.11060544    100.0
 <Mar23-2019> <10:00:04>     10      0.29155691      0.06346282     63.1
 <Mar23-2019> <10:00:04>     11      0.06968450      0.01516265     14.3
 <Mar23-2019> <10:00:04>     12      0.00610779      0.00132765      0.3
 <Mar23-2019> <10:00:04>     13      0.00000828      0.00000183      0.0
 <Mar23-2019> <10:00:04>     14      0.00000012      0.00000002      0.0
 <Mar23-2019> <10:00:04>     15      0.00000001      0.00000000      0.0
 <Mar23-2019> <10:00:04>  SCF converged
 <Mar23-2019> <10:00:04>     16      0.00000000      0.00000000      0.0
 <Mar23-2019> <10:00:05>  >>>> POPAN
 <Mar23-2019> <10:00:05>  >>>> DEBYE
 <Mar23-2019> <10:00:05>  NORMAL TERMINATION
 <Mar23-2019> <10:00:05>  END
 <Mar23-2019> <10:00:05>  ADF 2018  RunTime: Mar23-2019 10:00:05  Nodes: 1  Procs: 4
 <Mar23-2019> <10:00:05>  Kr
 <Mar23-2019> <10:00:06>  RunType   : SINGLE POINT
 <Mar23-2019> <10:00:06>  Net Charge: 0 (Nuclei minus Electrons)
 <Mar23-2019> <10:00:06>  Symmetry  : ATOM
 <Mar23-2019> <10:00:06>  >>>> FRAGM
  Coordinates
    Atom         X           Y           Z   (Angstrom)
    1.Kr        0.000000    0.000000    0.000000
 <Mar23-2019> <10:00:06>  >>>> CORORT
 <Mar23-2019> <10:00:06>  >>>> FITINT
 <Mar23-2019> <10:00:06>  >>>> CLSMAT
 <Mar23-2019> <10:00:06>  >>>> ORTHON
 <Mar23-2019> <10:00:06>  >>>> GENPT
 <Mar23-2019> <10:00:06>  Block Length= 108
 <Mar23-2019> <10:00:06>  >>>> PTBAS
 <Mar23-2019> <10:00:06>  >>>> CYCLE
 <Mar23-2019> <10:00:07>  CalcFitR12Fit
 <Mar23-2019> <10:00:07>  CalcFitCoeff
 <Mar23-2019> <10:00:11>  Orbital Data from active fragment used
 <Mar23-2019> <10:00:11>              |Error|         MaxErr       Wt(A-DIIS)
 <Mar23-2019> <10:00:11>      1      0.20631373      0.04945947
 <Mar23-2019> <10:00:12>      2      0.00344645      0.00111172    100.0
 <Mar23-2019> <10:00:14>      3      0.00023078      0.00008604    100.0
 <Mar23-2019> <10:00:15>      4      0.00010137      0.00002210      0.0
 <Mar23-2019> <10:00:17>      5      0.00000991      0.00000242      0.0
 <Mar23-2019> <10:00:19>      6      0.00000073      0.00000023      0.0
 <Mar23-2019> <10:00:20>  SCF converged
 <Mar23-2019> <10:00:21>      7      0.00000014      0.00000003      0.0
 <Mar23-2019> <10:00:23>   Total energy      -2752.05365745 a.u.
 <Mar23-2019> <10:00:23>  >>>> POPAN
 <Mar23-2019> <10:00:23>  >>>> DEBYE
 <Mar23-2019> <10:00:23>  NORMAL TERMINATION
 <Mar23-2019> <10:00:23>  END
