 
Create H   file=QZ4P-H
XC
  HartreeFock
End
  HartreeFock

 *******************************************************************************
 *                                                                             *
 *  -------------------------------------                                      *
 *   Amsterdam Density Functional  (ADF)         2018                          *
 *  -------------------------------------                                      *
 *                                               r70630 2018-11-24             *
 *                                                                             *
 *                                                                             *
 *                              =================                              *
 *                              |               |                              *
 *                              |     A D F     |                              *
 *                              |               |                              *
 *                              =================                              *
 *                                                                             *
 *                                                                             *
 *   Online information and documentation:  https://www.scm.com/support/       *
 *   E-mail:  support@scm.com   info@scm.com                                   *
 *                                                                             *
 *   Scientific publications using ADF results must be properly referenced     *
 *   See the User Manuals (or the web site) for recommended citations          *
 *   The terms and conditions of the End User License Agreement apply to       *
 *   the use of ADF, https://www.scm.com/license-terms/                        *
 *                                                                             *
 **********************  x86_64_linux_intel / intelmpi  ************************
 
 Licensed to: Mr. Vladimir Konjkov / Florida Institute of Technology / Melbourne / Florida / USA
 SCM User ID: u21173
  
 ADF 2018  RunTime: Mar23-2019 10:00:01  Nodes: 1  Procs: 1

 Temporary files are created in /tmp/kid_0.1597712538

 Hydrogen (QZ, all electron, 5S 2P 2D)



 ===========================
 A T T A C H E D   F I L E S
 ===========================
  
 CREATE - Data File:    QZ4P-H
                        Hydrogen (QZ, all electron, 5S 2P 2D)



 ===============================
 M O D E L   P A R A M E T E R S
 ===============================
  
 DENSITY FUNCTIONAL POTENTIAL (scf)
    Hybrid:                            HARTREEFOCK                             == Not Default ==

 SPIN  (restricted / unrestr.)
    Molecule:                          Restricted                               

 OTHER ASPECTS
    Relativistic Corrections:          ---                                      

    Nuclear Charge Density Model:      Point Charge Nuclei                      
    Core Treatment:                    Frozen Orbital(s)                        

    Hyperfine or Zeeman Interaction:   ---                                      



 =====================================
 S Y M M E T R Y ,   E L E C T R O N S
 =====================================
  
 Symmetry: ATOM

 Irreducible Representations, including subspecies
 -------------------------------------------------
 S
 P:x  P:y  P:z
 D:z2  D:x2-y2  D:xy  D:xz  D:yz
 F:z3  F:z  F:xyz  F:z2x  F:z2y  F:x  F:y


 Configuration of Valence Electrons
 ==================================

          Occupation Numbers
          -------------------------------------------------
 S        1
 P        0
 D        0
 F        0
          -------------------------------------------------

 Total:   1

 Net Charge: 0 (Nuclei minus Electrons)

 Preset values for MO occupations will be applied through SCF cycle no. 1000000
 Thereafter, the program will assign electrons to MOs that are spatially
 similar to the occupied MOs in a "reference" cycle ("KeepOrbitals").
 The reference cycle is always the PREVIOUS cycle: it will evolve with
 the SCF procedure.



 ================================
 (Slater-type)  F U N C T I O N S  ***  (Basis and Fit)  ***
 ================================
  

 Atom Type    1  (H)
 ==============

 Valence Basis Sets:   9
 -----------------------
   1 S    3.300000
   1 S    2.000000
   1 S    1.400000
   1 S    1.000000
   1 S    0.710000
   2 P    2.000000
   2 P    1.000000
   3 D    2.500000
   3 D    1.500000

 Charge Fitting Sets (for the computation of the Coulomb Potential):  22
 -----------------------------------------------------------------------
   1 S    6.600000
   1 S    4.620000
   1 S    3.230000
   1 S    2.260000
   1 S    1.580000
   1 S    1.100000
   1 S    0.770000
   2 S    1.000000
   2 P    5.300000
   2 P    3.870000
   2 P    2.820000
   2 P    2.060000
   2 P    1.500000
   3 D    5.800000
   3 D    4.070000
   3 D    2.850000
   3 D    2.000000
   4 F    4.500000
   4 F    3.350000
   4 F    2.500000
   5 G    5.000000
   5 G    3.000000


 BAS: List of all Elementary Cartesian Basis Functions
 =====================================================

 The numbering in the list below (to the right of the function characteristics) is referred
 to in print-outs of MO eigenvectors and Mulliken populations in the BAS representation
 (as contrasted to the SFO representation).

 Notes:
 1. The functions are characterized by a polynomial prefactor (powers of x,y,z and r) and
    an exponential decay factor alpha.
 2. Since the basis sets are specific for an atom TYPE, the individual functions occur on
    all atoms of that type.
 3. The word 'Core' in the left margin signals that it is a Core Function (CF) : not a
    degree of freedom in the valence set, but only used to ensure orthogonalization of
    the other valence basis functions on the frozen Core Orbitals.


 (power of) X  Y  Z  R     Alpha  on Atom
            ==========     =====     ==========

 H                                    1
                                  ---------------------------------------------------------------------------
            0  0  0  0     3.300      1
            0  0  0  0     2.000      2
            0  0  0  0     1.400      3
            0  0  0  0     1.000      4
            0  0  0  0     0.710      5
            1  0  0  0     2.000      6
            0  1  0  0     2.000      7
            0  0  1  0     2.000      8
            1  0  0  0     1.000      9
            0  1  0  0     1.000     10
            0  0  1  0     1.000     11
            2  0  0  0     2.500     12
            1  1  0  0     2.500     13
            1  0  1  0     2.500     14
            0  2  0  0     2.500     15
            0  1  1  0     2.500     16
            0  0  2  0     2.500     17
            2  0  0  0     1.500     18
            1  1  0  0     1.500     19
            1  0  1  0     1.500     20
            0  2  0  0     1.500     21
            0  1  1  0     1.500     22
            0  0  2  0     1.500     23

 Total number of charge fitting functions (nprimf)       107
 Total number of Cartesian basis functions (naos)         23
 Total number of Cartesian core functions  (ncos)          0



 BAS: List of all Elementary Cartesian Basis Functions
 =====================================================

 The numbering in the list below (to the right of the function characteristics) is referred
 to in print-outs of MO eigenvectors and Mulliken populations in the BAS representation
 (as contrasted to the SFO representation).

 Notes:
 1. The functions are characterized by a polynomial prefactor (powers of x,y,z and r) and
    an exponential decay factor alpha.
 2. Since the basis sets are specific for an atom TYPE, the individual functions occur on
    all atoms of that type.
 3. The word 'Core' in the left margin signals that it is a Core Function (CF) : not a
    degree of freedom in the valence set, but only used to ensure orthogonalization of
    the other valence basis functions on the frozen Core Orbitals.


 (power of) X  Y  Z  R     Alpha  on Atom
            ==========     =====     ==========

 H                                    1
                                  ---------------------------------------------------------------------------
            0  0  0  0     3.300      1
            0  0  0  0     2.000      2
            0  0  0  0     1.400      3
            0  0  0  0     1.000      4
            0  0  0  0     0.710      5
            1  0  0  0     2.000      6
            0  1  0  0     2.000      7
            0  0  1  0     2.000      8
            1  0  0  0     1.000      9
            0  1  0  0     1.000     10
            0  0  1  0     1.000     11
            2  0  0  0     2.500     12
            1  1  0  0     2.500     13
            1  0  1  0     2.500     14
            0  2  0  0     2.500     15
            0  1  1  0     2.500     16
            0  0  2  0     2.500     17
            2  0  0  0     1.500     18
            1  1  0  0     1.500     19
            1  0  1  0     1.500     20
            0  2  0  0     1.500     21
            0  1  1  0     1.500     22
            0  0  2  0     1.500     23
1
 ***************************************************************************************************



                                              ***********************
                                              *  T E C H N I C A L  *
                                              ***********************
  



 =============================================================
 P A R A L L E L I Z A T I O N  and  V E C T O R I Z A T I O N
 =============================================================
  
 Nr of parallel processes:                                1
 Maximum vector length in NumInt loops:                 128

 IO buffersize (Mb):                                     64.000000



 =====================
 S C F   U P D A T E S
 =====================
  
 Max. nr. of cycles:                               300
 Convergence criterion:                              0.0000000100
   secondary criterion:                              0.0000000100

 Mix parameter (when DIIS does not apply):           0.2000000000
 Special mix parameter for the first cycle:          1.0000000000
 Mixed ADIIS+DIIS will be used
    Max number of expansion vectors:                10
    Pure ADIIS when Max([F,P]) is above              0.1000000000
    Pure DIIS when Max([F,P]) is below               0.0010000000
 Automatic ElectronSmearing (in case of problematic SCF convergence) disabled



 =================
 P R E C I S I O N  ***  (General: NumInt, NeglectFunctionTails, ...)  ***
 =================
  

 NumInt:           Target precision:                12.0000000000
 -------           Initial precision:               10.0000000000
                   Min. precision (optimization):   10.0000000000

 Neglect Functions:          Basis functions:        0.1000000000E-13
 ------------------          Fit functions:          0.1000000000E-13



 ===========================
 L I N E A R   S C A L I N G
 ===========================
  

 Cut-off radii density fit:                        0.1000000000E-97
 Overlap cut-off criterion AO matrix elements:     0.1000000000E-97
 Cut-offs for Coulomb potential and fitted density:0.1000000000E-97
 Cut-off criterion for Coulomb multipole terms:    0.1000000000E-97
 Progressive Convergence parameter:                 0.000000000    
1
 ***************************************************************************************************



                                            ***************************
                                            *  C O M P U T A T I O N  *
                                            ***************************
  

 Number of elements of the density matrix on this node (used, total):       276       276



 ===========================================
 Numerical Integration : Fuzzy Cells (Becke)
 ===========================================
  
 Becke grid quality: VERYGOOD       
  
 Lebedev angular grid order:             min:  13 max:  41
 Nr. of radial points:                   min:  64 max:  64

 Total nr. of points:         64
 Nr. of blocks:                1
 Block length:                64
 Nr. of dummy points:          0


 Test of Precision of the Numerical Integration Grid
 ===================================================

 Integral of the Total Core Density:                   0.00000000000000



 ========================
 Density Fitting (zlmFit)
 ========================
  
 ZlmFit Fit Quality: VERYGOOD       
  
 Max L-expansion:                        min:   0 max:   0
 Nr. of radial interpolation points:     min: 130 max: 130



 ======================
 RI Hartree-Fock Scheme
 ======================
  
 Fit Set Quality     : NORMAL
 Integration Quality : NORMAL
 Threshold Quality   : NORMAL
 Response Quality    : DEFAULT
 Is Range Separated  :  F
 
 RIHartreeFock Dependency: number of modified vectors:           1



 =====
 S C F  ***  ScaSCF  ***
 =====
  

 CYCLE    1
 SCF Error: norm([F,P])=      0.000000000000, max([F,P])=      0.000000000000
 orbitals (Q,E):
 ---------------
 S :1...5            ( 1.00    -0.5000)  ( 0.00    -0.1102)  ( 0.00     0.2912)  ( 0.00     2.1461)
                     ( 0.00    15.1247)
 P :1...2            ( 0.00    -0.0467)  ( 0.00     1.6701)
 D :1...2            ( 0.00     0.4090)  ( 0.00     3.3832)

 CYCLE    2
 SCF Error: norm([F,P])=      0.093980341628, max([F,P])=      0.086807828877
 orbitals (Q,E):
 ---------------
 S :1...2            ( 1.00    -0.1999)  ( 0.00     0.1209)
 P :1...1            ( 0.00     0.3143)
 D :1...1            ( 0.00     0.7862)

 CYCLE    3
  SDIIS (wt  0.000): -0.0564  1.0564
 A-DIIS (wt  1.000):  0.0000  1.0000
  DIIS coefficients:  0.0000  1.0000
 SCF Error: norm([F,P])=      0.008160665247, max([F,P])=      0.006729604473
 orbitals (Q,E):
 ---------------
 S :1...2            ( 1.00    -0.2265)  ( 0.00     0.1194)
 P :1...1            ( 0.00     0.2962)
 D :1...1            ( 0.00     0.7709)

 CYCLE    4
  SDIIS (wt  1.000): -0.1304  1.1304
  DIIS coefficients: -0.1304  1.1304
 SCF Error: norm([F,P])=      0.001305452545, max([F,P])=      0.000945572548
 orbitals (Q,E):
 ---------------
 S :1...2            ( 1.00    -0.2294)  ( 0.00     0.1190)
 P :1...1            ( 0.00     0.2936)
 D :1...1            ( 0.00     0.7685)

 CYCLE    5
  SDIIS (wt  1.000):  0.0182 -0.1857  1.1675
  DIIS coefficients:  0.0182 -0.1857  1.1675
 SCF Error: norm([F,P])=      0.000137342269, max([F,P])=      0.000109612709
 orbitals (Q,E):
 ---------------
 S :1...2            ( 1.00    -0.2295)  ( 0.00     0.1189)
 P :1...1            ( 0.00     0.2935)
 D :1...1            ( 0.00     0.7684)

 CYCLE    6
  SDIIS (wt  1.000): -0.0008  0.0073 -0.0586  1.0522
  DIIS coefficients: -0.0008  0.0073 -0.0586  1.0522
 SCF Error: norm([F,P])=      0.000002728098, max([F,P])=      0.000002372383
 orbitals (Q,E):
 ---------------
 S :1...2            ( 1.00    -0.2295)  ( 0.00     0.1189)
 P :1...1            ( 0.00     0.2935)
 D :1...1            ( 0.00     0.7684)

 CYCLE    7
  SDIIS (wt  1.000):  0.0000 -0.0003  0.0057  0.9946
  DIIS coefficients:  0.0000 -0.0003  0.0057  0.9946
 SCF Error: norm([F,P])=      0.000000021643, max([F,P])=      0.000000015393
 orbitals (Q,E):
 ---------------
 S :1...2            ( 1.00    -0.2295)  ( 0.00     0.1189)
 P :1...1            ( 0.00     0.2935)
 D :1...1            ( 0.00     0.7684)

 CYCLE    8
  SDIIS (wt  1.000): -0.0000  0.0000  0.0029  0.9971
  DIIS coefficients: -0.0000  0.0000  0.0029  0.9971
 SCF Error: norm([F,P])=      0.000000000116, max([F,P])=      0.000000000103
 orbitals (Q,E):
 ---------------
 S :1...2            ( 1.00    -0.2295)  ( 0.00     0.1189)
 P :1...1            ( 0.00     0.2935)
 D :1...1            ( 0.00     0.7684)

 SCF CONVERGED

 CYCLE    9
1
 ***************************************************************************************************



                                                *******************
                                                *  R E S U L T S  *
                                                *******************
  
  
 Hartree-Fock exchange energy:  -0.128219550455408     
 *** Setting up for NEW gradients in Focky
 *** Using FIT density in Focky

 Orbital Energies, per Irrep and Spin:
 ======================================
                        Occup              E (au)              E (eV)       Diff (eV) with prev. cycle
                        -----      --------------------        ------       --------------------------
 S
               1        1.000     -0.22949094746215E+00        -6.245              -6.29E-12
               2        0.000      0.11894133910318E+00         3.237
               3        0.000      0.65705773962082E+00        17.879
               4        0.000      0.27038484894994E+01        73.575
               5        0.000      0.15833474185234E+02       430.851
 P
               1        0.000      0.29347775676049E+00         7.986
               2        0.000      0.22222669693709E+01        60.471
 D
               1        0.000      0.76837307073916E+00        20.908
               2        0.000      0.39447082782870E+01       107.341


 Partially Occupied:
               1 S                -0.22949094746215E+00
  
 LUMO :        2 S                 0.11894133910318E+00
  


 Orbital Energies, all Irreps
 ========================================

 Irrep        no.  (spin)   Occup              E (au)                E (eV)
 ---------------------------------------------------------------------------
 S             1             1.00       -0.22949094746215E+00        -6.2448
 S             2             0.00        0.11894133910318E+00         3.2366
 P             1             0.00        0.29347775676049E+00         7.9859
 S             3             0.00        0.65705773962082E+00        17.8795
 D             1             0.00        0.76837307073916E+00        20.9085
 P             2             0.00        0.22222669693709E+01        60.4710
 S             4             0.00        0.27038484894994E+01        73.5755
 D             2             0.00        0.39447082782870E+01       107.3410
 S             5             0.00        0.15833474185234E+02       430.8508


 All Electron Calculation, thus no Orbital Energies of the Core Orbitals are calculated



 =======================================
 M U L L I K E N   P O P U L A T I O N S
 =======================================
  
 The survey below gives for each atom:
 a) the total charge (Z minus electrons)
 b) the net spin polarization (nr of electrons spin-A minus spin-B)
 c) for each spin the atomic electron valence density (integrated) per L-value.

 Atom              Charge    Spin density          S         P         D         F
 ----              ------    ------------       ------    ------    ------    ------
 1 H              -0.0000                       1.0000    0.0000    0.0000    0.0000

 Populations of individual BAS functions
 ----------------------------------------
 1 H           -0.0005  0.0158  0.1205  0.1077  0.7564  0.0000  0.0000  0.0000  0.0000  0.0000
                0.0000  0.0000  0.0000  0.0000  0.0000  0.0000  0.0000  0.0000  0.0000  0.0000
                0.0000  0.0000  0.0000

 Gross Charges per Atom (Z minus electrons)
 ==========================================
            -0.0000
 Net Total: -0.00000000



 =======================================================================
 Electrostatic potential at the Nuclei due to electrons and other nuclei
 =======================================================================
  
         Atom                  Potential
         ----                  ---------
     1)   H                   0.84363730
 
 
 ========================
 No memory problems found
 ========================
 
 Maximum number of active allocate calls:         370
 
 *******************************************************************************

                             A D F   E X I T
 NORMAL TERMINATION



 =================
 Timing Statistics
 =================
  
 Total Used :                     CPU=        0.43      System=        0.05     Elapsed=        1.38

 Calls  Section                     ( Mean, Percentage )
 ---------------------------------------------------------------------------------------------------
     3  ><      ................      0.00    0.53             0.00    0.47             0.00    0.18
     1  INIT    ................      0.03    6.94             0.00    8.71             0.94   67.76
     1  GEOMET  ................      0.02    5.12             0.03   69.95             0.05    3.93
     1  INPUTA  ................      0.00    0.76             0.00    0.00             0.00    0.24
     1  MAINSY  ................      0.01    1.94             0.00    1.92             0.01    0.67
     1  SYMFIT  ................      0.00    0.26             0.00    0.00             0.00    0.08
     1  CORORT  ................      0.00    0.17             0.00    0.00             0.00    0.05
     1  SYMORB  ................      0.00    0.12             0.00    0.15             0.00    0.04
     1  FITINT  ................      0.01    1.54             0.00    0.00             0.01    0.48
     1  CLSMAT  ................      0.00    0.36             0.00    0.00             0.00    0.11
     1  ORTHON  ................      0.01    1.40             0.00    0.00             0.01    0.44
     1  GENPT   ................      0.01    3.24             0.00    0.00             0.01    1.02
     1  PTBAS   ................      0.00    0.87             0.00    0.00             0.00    0.27
     9  FOCKY   ................      0.03   63.43             0.00   15.30             0.03   20.41
     9  FOCKTR  ................      0.00    1.34             0.00    0.00             0.00    0.42
     9  SDIIS   ................      0.00    4.43             0.00    2.40             0.00    1.47
     1  COREPS  ................      0.01    2.94             0.00    1.09             0.01    0.96
     1  POPAN   ................      0.01    1.26             0.00    0.00             0.01    0.40
     1  DEBYE   ................      0.00    0.36             0.00    0.00             0.00    0.11
     1  EXIT PROCEDURE .........      0.01    2.99             0.00    0.00             0.01    0.94


 Currently Open Files (EXIT00)
 ====================

 Unit    Access Format  Status   Type       Ident (file)
 -------------------------------------------------------
   3      SEQ    FORM   TRANSP  NORMAL      LOGFILE
                                          ( logfile )


 Buffered I/O statistics
 =======================
 Memory available:                     67108864
 Number of records fitting in memory:     16131
 Input :   0.1% of                        23041  *4k bytes
 Output:  16.2% of                         1089  *4k bytes
 Records from serial files evicted:           0
                    others evicted:           0
 Hash table lookups:      46943 with          0 conflicts (  0.00%)

 ***************************************************************************************************
 (LOGFILE)
 <Mar23-2019> <10:00:01>  ADF 2018  RunTime: Mar23-2019 10:00:01  Nodes: 1  Procs: 1
 <Mar23-2019> <10:00:01>  Hydrogen (QZ, all electron, 5S 2P 2D)
 <Mar23-2019> <10:00:01>  RunType   : CREATE
 <Mar23-2019> <10:00:01>  Net Charge: 0 (Nuclei minus Electrons)
 <Mar23-2019> <10:00:01>  Symmetry  : ATOM
  Coordinates
    Atom         X           Y           Z   (Angstrom)
    1.H         0.000000    0.000000    0.000000
 <Mar23-2019> <10:00:01>  >>>> CORORT
 <Mar23-2019> <10:00:01>  >>>> FITINT
 <Mar23-2019> <10:00:01>  >>>> CLSMAT
 <Mar23-2019> <10:00:01>  >>>> ORTHON
 <Mar23-2019> <10:00:01>  >>>> GENPT
 <Mar23-2019> <10:00:01>  Block Length=  64
 <Mar23-2019> <10:00:01>  >>>> PTBAS
 <Mar23-2019> <10:00:01>  >>>> CYCLE
 <Mar23-2019> <10:00:01>  CalcFitR12Fit
 <Mar23-2019> <10:00:01>  CalcFitCoeff
 <Mar23-2019> <10:00:01>              |Error|         MaxErr       Wt(A-DIIS)
 <Mar23-2019> <10:00:01>      1      0.00000000      0.00000000
 <Mar23-2019> <10:00:01>      2      0.09398034      0.08680783
 <Mar23-2019> <10:00:01>      3      0.00816067      0.00672960    100.0
 <Mar23-2019> <10:00:01>      4      0.00130545      0.00094557      0.0
 <Mar23-2019> <10:00:01>      5      0.00013734      0.00010961      0.0
 <Mar23-2019> <10:00:01>      6      0.00000273      0.00000237      0.0
 <Mar23-2019> <10:00:01>      7      0.00000002      0.00000002      0.0
 <Mar23-2019> <10:00:01>      8      0.00000000      0.00000000      0.0
 <Mar23-2019> <10:00:01>  SCF converged
 <Mar23-2019> <10:00:01>      9      0.00000000      0.00000000      0.0
 <Mar23-2019> <10:00:01>  >>>> POPAN
 <Mar23-2019> <10:00:01>  >>>> DEBYE
 <Mar23-2019> <10:00:01>  NORMAL TERMINATION
 <Mar23-2019> <10:00:01>  END
 
Create N   file=ET-pVQZ-N
XC
  HartreeFock
End
  HartreeFock

 *******************************************************************************
 *                                                                             *
 *  -------------------------------------                                      *
 *   Amsterdam Density Functional  (ADF)         2018                          *
 *  -------------------------------------                                      *
 *                                               r70630 2018-11-24             *
 *                                                                             *
 *                                                                             *
 *                              =================                              *
 *                              |               |                              *
 *                              |     A D F     |                              *
 *                              |               |                              *
 *                              =================                              *
 *                                                                             *
 *                                                                             *
 *   Online information and documentation:  https://www.scm.com/support/       *
 *   E-mail:  support@scm.com   info@scm.com                                   *
 *                                                                             *
 *   Scientific publications using ADF results must be properly referenced     *
 *   See the User Manuals (or the web site) for recommended citations          *
 *   The terms and conditions of the End User License Agreement apply to       *
 *   the use of ADF, https://www.scm.com/license-terms/                        *
 *                                                                             *
 **********************  x86_64_linux_intel / intelmpi  ************************
 
 Licensed to: Mr. Vladimir Konjkov / Florida Institute of Technology / Melbourne / Florida / USA
 SCM User ID: u21173
  
 ADF 2018  RunTime: Mar23-2019 10:00:01  Nodes: 1  Procs: 1

 Temporary files are created in /tmp/kid_0.1489232352

  6S 4P 2D 1F even-tempered basis for N



 ===========================
 A T T A C H E D   F I L E S
 ===========================
  
 CREATE - Data File:    ET-pVQZ-N
                        6S 4P 2D 1F even-tempered basis for N



 ===============================
 M O D E L   P A R A M E T E R S
 ===============================
  
 DENSITY FUNCTIONAL POTENTIAL (scf)
    Hybrid:                            HARTREEFOCK                             == Not Default ==

 SPIN  (restricted / unrestr.)
    Molecule:                          Restricted                               

 OTHER ASPECTS
    Relativistic Corrections:          ---                                      

    Nuclear Charge Density Model:      Point Charge Nuclei                      
    Core Treatment:                    Frozen Orbital(s)                        

    Hyperfine or Zeeman Interaction:   ---                                      



 =====================================
 S Y M M E T R Y ,   E L E C T R O N S
 =====================================
  
 Symmetry: ATOM

 Irreducible Representations, including subspecies
 -------------------------------------------------
 S
 P:x  P:y  P:z
 D:z2  D:x2-y2  D:xy  D:xz  D:yz
 F:z3  F:z  F:xyz  F:z2x  F:z2y  F:x  F:y


 Configuration of Valence Electrons
 ==================================

          Occupation Numbers
          -------------------------------------------------
 S        2*2
 P        3
 D        0
 F        0
          -------------------------------------------------

 Total:   7

 Net Charge: 0 (Nuclei minus Electrons)

 Preset values for MO occupations will be applied through SCF cycle no. 1000000
 Thereafter, the program will assign electrons to MOs that are spatially
 similar to the occupied MOs in a "reference" cycle ("KeepOrbitals").
 The reference cycle is always the PREVIOUS cycle: it will evolve with
 the SCF procedure.



 ================================
 (Slater-type)  F U N C T I O N S  ***  (Basis and Fit)  ***
 ================================
  

 Atom Type    1  (N)
 ==============

 Valence Basis Sets:  13
 -----------------------
   1 S   11.257301
   1 S    6.665069
   1 S    3.946163
   1 S    2.336390
   1 S    1.383298
   1 S    0.819004
   2 P    4.629540
   2 P    2.571967
   2 P    1.428871
   2 P    0.793817
   3 D    2.951610
   3 D    1.639783
   4 F    3.300000

 Charge Fitting Sets (for the computation of the Coulomb Potential):  45
 -----------------------------------------------------------------------
   1 S   36.456789
   1 S   25.082069
   1 S   17.256325
   1 S   11.872256
   1 S    8.168046
   1 S    5.619571
   1 S    3.866233
   1 S    2.659947
   1 S    1.830029
   1 S    1.259050
   2 P   30.824432
   2 P   20.488156
   2 P   13.617917
   2 P    9.051457
   2 P    6.016256
   2 P    3.998840
   2 P    2.657920
   2 P    1.766647
   2 P    1.174242
   3 D   31.361313
   3 D   21.961704
   3 D   15.379344
   3 D   10.769849
   3 D    7.541911
   3 D    5.281450
   3 D    3.698495
   3 D    2.589982
   3 D    1.813713
   3 D    1.270107
   4 F   22.785085
   4 F   16.753738
   4 F   12.318924
   4 F    9.058032
   4 F    6.660318
   4 F    4.897292
   4 F    3.600950
   4 F    2.647757
   4 F    1.946880
   5 G   14.261577
   5 G   10.755337
   5 G    8.111114
   5 G    6.116979
   5 G    4.613106
   5 G    3.478964
   5 G    2.623653


 BAS: List of all Elementary Cartesian Basis Functions
 =====================================================

 The numbering in the list below (to the right of the function characteristics) is referred
 to in print-outs of MO eigenvectors and Mulliken populations in the BAS representation
 (as contrasted to the SFO representation).

 Notes:
 1. The functions are characterized by a polynomial prefactor (powers of x,y,z and r) and
    an exponential decay factor alpha.
 2. Since the basis sets are specific for an atom TYPE, the individual functions occur on
    all atoms of that type.
 3. The word 'Core' in the left margin signals that it is a Core Function (CF) : not a
    degree of freedom in the valence set, but only used to ensure orthogonalization of
    the other valence basis functions on the frozen Core Orbitals.


 (power of) X  Y  Z  R     Alpha  on Atom
            ==========     =====     ==========

 N                                    1
                                  ---------------------------------------------------------------------------
            0  0  0  0    11.257      1
            0  0  0  0     6.665      2
            0  0  0  0     3.946      3
            0  0  0  0     2.336      4
            0  0  0  0     1.383      5
            0  0  0  0     0.819      6
            1  0  0  0     4.630      7
            0  1  0  0     4.630      8
            0  0  1  0     4.630      9
            1  0  0  0     2.572     10
            0  1  0  0     2.572     11
            0  0  1  0     2.572     12
            1  0  0  0     1.429     13
            0  1  0  0     1.429     14
            0  0  1  0     1.429     15
            1  0  0  0     0.794     16
            0  1  0  0     0.794     17
            0  0  1  0     0.794     18
            2  0  0  0     2.952     19
            1  1  0  0     2.952     20
            1  0  1  0     2.952     21
            0  2  0  0     2.952     22
            0  1  1  0     2.952     23
            0  0  2  0     2.952     24
            2  0  0  0     1.640     25
            1  1  0  0     1.640     26
            1  0  1  0     1.640     27
            0  2  0  0     1.640     28
            0  1  1  0     1.640     29
            0  0  2  0     1.640     30
            3  0  0  0     3.300     31
            2  1  0  0     3.300     32
            2  0  1  0     3.300     33
            1  2  0  0     3.300     34
            1  1  1  0     3.300     35
            1  0  2  0     3.300     36
            0  3  0  0     3.300     37
            0  2  1  0     3.300     38
            0  1  2  0     3.300     39
            0  0  3  0     3.300     40

 Total number of charge fitting functions (nprimf)       292
 Total number of Cartesian basis functions (naos)         40
 Total number of Cartesian core functions  (ncos)          0



 BAS: List of all Elementary Cartesian Basis Functions
 =====================================================

 The numbering in the list below (to the right of the function characteristics) is referred
 to in print-outs of MO eigenvectors and Mulliken populations in the BAS representation
 (as contrasted to the SFO representation).

 Notes:
 1. The functions are characterized by a polynomial prefactor (powers of x,y,z and r) and
    an exponential decay factor alpha.
 2. Since the basis sets are specific for an atom TYPE, the individual functions occur on
    all atoms of that type.
 3. The word 'Core' in the left margin signals that it is a Core Function (CF) : not a
    degree of freedom in the valence set, but only used to ensure orthogonalization of
    the other valence basis functions on the frozen Core Orbitals.


 (power of) X  Y  Z  R     Alpha  on Atom
            ==========     =====     ==========

 N                                    1
                                  ---------------------------------------------------------------------------
            0  0  0  0    11.257      1
            0  0  0  0     6.665      2
            0  0  0  0     3.946      3
            0  0  0  0     2.336      4
            0  0  0  0     1.383      5
            0  0  0  0     0.819      6
            1  0  0  0     4.630      7
            0  1  0  0     4.630      8
            0  0  1  0     4.630      9
            1  0  0  0     2.572     10
            0  1  0  0     2.572     11
            0  0  1  0     2.572     12
            1  0  0  0     1.429     13
            0  1  0  0     1.429     14
            0  0  1  0     1.429     15
            1  0  0  0     0.794     16
            0  1  0  0     0.794     17
            0  0  1  0     0.794     18
            2  0  0  0     2.952     19
            1  1  0  0     2.952     20
            1  0  1  0     2.952     21
            0  2  0  0     2.952     22
            0  1  1  0     2.952     23
            0  0  2  0     2.952     24
            2  0  0  0     1.640     25
            1  1  0  0     1.640     26
            1  0  1  0     1.640     27
            0  2  0  0     1.640     28
            0  1  1  0     1.640     29
            0  0  2  0     1.640     30
            3  0  0  0     3.300     31
            2  1  0  0     3.300     32
            2  0  1  0     3.300     33
            1  2  0  0     3.300     34
            1  1  1  0     3.300     35
            1  0  2  0     3.300     36
            0  3  0  0     3.300     37
            0  2  1  0     3.300     38
            0  1  2  0     3.300     39
            0  0  3  0     3.300     40
1
 ***************************************************************************************************



                                              ***********************
                                              *  T E C H N I C A L  *
                                              ***********************
  



 =============================================================
 P A R A L L E L I Z A T I O N  and  V E C T O R I Z A T I O N
 =============================================================
  
 Nr of parallel processes:                                1
 Maximum vector length in NumInt loops:                 128

 IO buffersize (Mb):                                     64.000000



 =====================
 S C F   U P D A T E S
 =====================
  
 Max. nr. of cycles:                               300
 Convergence criterion:                              0.0000000100
   secondary criterion:                              0.0000000100

 Mix parameter (when DIIS does not apply):           0.2000000000
 Special mix parameter for the first cycle:          1.0000000000
 Mixed ADIIS+DIIS will be used
    Max number of expansion vectors:                10
    Pure ADIIS when Max([F,P]) is above              0.1000000000
    Pure DIIS when Max([F,P]) is below               0.0010000000
 Automatic ElectronSmearing (in case of problematic SCF convergence) disabled



 =================
 P R E C I S I O N  ***  (General: NumInt, NeglectFunctionTails, ...)  ***
 =================
  

 NumInt:           Target precision:                12.0000000000
 -------           Initial precision:               10.0000000000
                   Min. precision (optimization):   10.0000000000

 Neglect Functions:          Basis functions:        0.1000000000E-13
 ------------------          Fit functions:          0.1000000000E-13



 ===========================
 L I N E A R   S C A L I N G
 ===========================
  

 Cut-off radii density fit:                        0.1000000000E-97
 Overlap cut-off criterion AO matrix elements:     0.1000000000E-97
 Cut-offs for Coulomb potential and fitted density:0.1000000000E-97
 Cut-off criterion for Coulomb multipole terms:    0.1000000000E-97
 Progressive Convergence parameter:                 0.000000000    
1
 ***************************************************************************************************



                                            ***************************
                                            *  C O M P U T A T I O N  *
                                            ***************************
  

 Number of elements of the density matrix on this node (used, total):       820       820



 ===========================================
 Numerical Integration : Fuzzy Cells (Becke)
 ===========================================
  
 Becke grid quality: VERYGOOD       
  
 Lebedev angular grid order:             min:  13 max:  41
 Nr. of radial points:                   min:  76 max:  76

 Total nr. of points:         76
 Nr. of blocks:                1
 Block length:                76
 Nr. of dummy points:          0


 Test of Precision of the Numerical Integration Grid
 ===================================================

 Integral of the Total Core Density:                   0.00000000000000



 ========================
 Density Fitting (zlmFit)
 ========================
  
 ZlmFit Fit Quality: VERYGOOD       
  
 Max L-expansion:                        min:   0 max:   0
 Nr. of radial interpolation points:     min: 170 max: 170



 ======================
 RI Hartree-Fock Scheme
 ======================
  
 Fit Set Quality     : NORMAL
 Integration Quality : NORMAL
 Threshold Quality   : NORMAL
 Response Quality    : DEFAULT
 Is Range Separated  :  F
 
 RIHartreeFock Dependency: number of modified vectors:           1



 =====
 S C F  ***  ScaSCF  ***
 =====
  

 CYCLE    1
 SCF Error: norm([F,P])=      0.000000000000, max([F,P])=      0.000000000000
 orbitals (Q,E):
 ---------------
 S :1...6            ( 2.00   -24.4997)  ( 2.00    -6.1204)  ( 0.00    -2.7196)  ( 0.00    -1.5031)
                     ( 0.00     3.9611)  ( 0.00    90.0123)
 P :1...4            ( 3.00    -6.1075)  ( 0.00    -2.6793)  ( 0.00    -1.4087)  ( 0.00     1.4415)
 D :1...2            ( 0.00    -2.6906)  ( 0.00    -1.2664)
 F :1...1            ( 0.00    -0.3300)

 CYCLE    2
  SDIIS (wt  0.000):  1.0000 -0.0000
 A-DIIS (wt  1.000):  0.0000  1.0000
  DIIS coefficients:  0.0000  1.0000
 SCF Error: norm([F,P])=      6.934030779277, max([F,P])=      3.691756537957
 orbitals (Q,E):
 ---------------
 S :1...3            ( 2.00   -12.5970)  ( 2.00    -0.1611)  ( 0.00     0.2877)
 P :1...2            ( 3.00     0.1618)  ( 0.00     0.6069)
 D :1...1            ( 0.00     0.9994)
 F :1...1            ( 0.00     5.1508)

 CYCLE    3
  SDIIS (wt  0.000):  0.1318  0.8682
 A-DIIS (wt  1.000):  0.1160  0.8840
  DIIS coefficients:  0.1160  0.8840
 SCF Error: norm([F,P])=      1.818823477419, max([F,P])=      1.450203754622
 orbitals (Q,E):
 ---------------
 S :1...3            ( 2.00   -17.2871)  ( 2.00    -1.7936)  ( 0.00    -0.0789)
 P :1...2            ( 3.00    -0.9391)  ( 0.00    -0.0258)
 D :1...1            ( 0.00     0.3558)
 F :1...1            ( 0.00     3.5383)

 CYCLE    4
  SDIIS (wt  0.000): -0.0405  0.2821  0.7584
 A-DIIS (wt  1.000):  0.0000  0.0114  0.9886
  DIIS coefficients:  0.0000  0.0114  0.9886
 SCF Error: norm([F,P])=      1.044042289288, max([F,P])=      0.537803713435
 orbitals (Q,E):
 ---------------
 S :1...3            ( 2.00   -15.0066)  ( 2.00    -0.7576)  ( 0.00     0.2332)
 P :1...2            ( 3.00    -0.0298)  ( 0.00     0.2757)
 D :1...1            ( 0.00     0.8971)
 F :1...1            ( 0.00     4.7083)

 CYCLE    5
  SDIIS (wt  0.000): -0.0077 -0.0939  0.3173  0.7842
 A-DIIS (wt  1.000):  0.0000  0.0000  0.1180  0.8820
  DIIS coefficients:  0.0000  0.0000  0.1180  0.8820
 SCF Error: norm([F,P])=      0.544576848256, max([F,P])=      0.341015016200
 orbitals (Q,E):
 ---------------
 S :1...3            ( 2.00   -16.1958)  ( 2.00    -1.2046)  ( 0.00     0.1531)
 P :1...2            ( 3.00    -0.4004)  ( 0.00     0.1879)
 D :1...1            ( 0.00     0.7216)
 F :1...1            ( 0.00     4.2479)

 CYCLE    6
  SDIIS (wt  0.000):  0.0011  0.0035 -0.1600  0.1472  1.0082
 A-DIIS (wt  1.000):  0.0000  0.0000  0.0000  0.0000  1.0000
  DIIS coefficients:  0.0000  0.0000  0.0000  0.0000  1.0000
 SCF Error: norm([F,P])=      0.238269959691, max([F,P])=      0.139272255053
 orbitals (Q,E):
 ---------------
 S :1...3            ( 2.00   -15.6275)  ( 2.00    -0.9684)  ( 0.00     0.2073)
 P :1...2            ( 3.00    -0.2026)  ( 0.00     0.2391)
 D :1...1            ( 0.00     0.8287)
 F :1...1            ( 0.00     4.5010)

 CYCLE    7
  SDIIS (wt  0.288):  0.0007  0.0026 -0.0331 -0.0485  0.3796  0.6988
 A-DIIS (wt  0.712):  0.0000  0.0000  0.0000  0.0000  0.0339  0.9661
  DIIS coefficients:  0.0002  0.0007 -0.0095 -0.0140  0.1335  0.8891
 SCF Error: norm([F,P])=      0.117600590703, max([F,P])=      0.071485116056
 orbitals (Q,E):
 ---------------
 S :1...3            ( 2.00   -15.8926)  ( 2.00    -1.0661)  ( 0.00     0.1898)
 P :1...2            ( 3.00    -0.2865)  ( 0.00     0.2216)
 D :1...1            ( 0.00     0.7899)
 F :1...1            ( 0.00     4.3987)

 CYCLE    8
  SDIIS (wt  0.751): -0.0001  0.0007  0.0032 -0.0056 -0.1124  0.1570  0.9572
 A-DIIS (wt  0.249):  0.0000  0.0000  0.0000  0.0000  0.0000  0.0000  1.0000
  DIIS coefficients: -0.0001  0.0005  0.0024 -0.0042 -0.0844  0.1178  0.9679
 SCF Error: norm([F,P])=      0.041885741165, max([F,P])=      0.025693971370
 orbitals (Q,E):
 ---------------
 S :1...3            ( 2.00   -15.8159)  ( 2.00    -1.0362)  ( 0.00     0.1959)
 P :1...2            ( 3.00    -0.2611)  ( 0.00     0.2272)
 D :1...1            ( 0.00     0.8025)
 F :1...1            ( 0.00     4.4301)

 CYCLE    9
  SDIIS (wt  0.982):  0.0000 -0.0000 -0.0001  0.0032  0.0014 -0.0644 -0.0249  1.0848
 A-DIIS (wt  0.018):  0.0000  0.0000  0.0000  0.0000  0.0000  0.0000  0.0000  1.0000
  DIIS coefficients:  0.0000 -0.0000 -0.0001  0.0031  0.0014 -0.0632 -0.0245  1.0833
 SCF Error: norm([F,P])=      0.004699517641, max([F,P])=      0.002798229192
 orbitals (Q,E):
 ---------------
 S :1...3            ( 2.00   -15.8242)  ( 2.00    -1.0392)  ( 0.00     0.1954)
 P :1...2            ( 3.00    -0.2638)  ( 0.00     0.2267)
 D :1...1            ( 0.00     0.8013)
 F :1...1            ( 0.00     4.4269)

 CYCLE   10
  SDIIS (wt  1.000): -0.0000  0.0000 -0.0000 -0.0002 -0.0010  0.0080  0.0096 -0.1258  1.1095
  DIIS coefficients: -0.0000  0.0000 -0.0000 -0.0002 -0.0010  0.0080  0.0096 -0.1258  1.1095
 SCF Error: norm([F,P])=      0.000082870572, max([F,P])=      0.000052071273
 orbitals (Q,E):
 ---------------
 S :1...3            ( 2.00   -15.8241)  ( 2.00    -1.0391)  ( 0.00     0.1954)
 P :1...2            ( 3.00    -0.2637)  ( 0.00     0.2267)
 D :1...1            ( 0.00     0.8013)
 F :1...1            ( 0.00     4.4270)

 CYCLE   11
  SDIIS (wt  1.000):  0.0000 -0.0000  0.0000  0.0000 -0.0000 -0.0007 -0.0004  0.0091 -0.2095  1.2015
  DIIS coefficients:  0.0000 -0.0000  0.0000  0.0000 -0.0000 -0.0007 -0.0004  0.0091 -0.2095  1.2015
 SCF Error: norm([F,P])=      0.000008748490, max([F,P])=      0.000005645396
 orbitals (Q,E):
 ---------------
 S :1...3            ( 2.00   -15.8241)  ( 2.00    -1.0391)  ( 0.00     0.1954)
 P :1...2            ( 3.00    -0.2637)  ( 0.00     0.2267)
 D :1...1            ( 0.00     0.8013)
 F :1...1            ( 0.00     4.4270)

 CYCLE   12
  SDIIS (wt  1.000): -0.0000  0.0000  0.0000  0.0000  0.0008 -0.0136  1.0128
  DIIS coefficients: -0.0000  0.0000  0.0000  0.0000  0.0008 -0.0136  1.0128
 SCF Error: norm([F,P])=      0.000000022639, max([F,P])=      0.000000014193
 orbitals (Q,E):
 ---------------
 S :1...3            ( 2.00   -15.8241)  ( 2.00    -1.0391)  ( 0.00     0.1954)
 P :1...2            ( 3.00    -0.2637)  ( 0.00     0.2267)
 D :1...1            ( 0.00     0.8013)
 F :1...1            ( 0.00     4.4270)

 CYCLE   13
  SDIIS (wt  1.000): -0.0000 -0.0000  0.0002 -0.0112  1.0111
  DIIS coefficients: -0.0000 -0.0000  0.0002 -0.0112  1.0111
 SCF Error: norm([F,P])=      0.000000000932, max([F,P])=      0.000000000510
 orbitals (Q,E):
 ---------------
 S :1...3            ( 2.00   -15.8241)  ( 2.00    -1.0391)  ( 0.00     0.1954)
 P :1...2            ( 3.00    -0.2637)  ( 0.00     0.2267)
 D :1...1            ( 0.00     0.8013)
 F :1...1            ( 0.00     4.4270)

 SCF CONVERGED

 CYCLE   14
1
 ***************************************************************************************************



                                                *******************
                                                *  R E S U L T S  *
                                                *******************
  
  
 Hartree-Fock exchange energy:   -5.93158874298096     
 *** Setting up for NEW gradients in Focky
 *** Using FIT density in Focky

 Orbital Energies, per Irrep and Spin:
 ======================================
                        Occup              E (au)              E (eV)       Diff (eV) with prev. cycle
                        -----      --------------------        ------       --------------------------
 S
               1        2.000     -0.15824133117986E+02      -430.597               8.12E-10
               2        2.000     -0.10391111868865E+01       -28.276               4.35E-10
               3        0.000      0.19539275059925E+00         5.317
               4        0.000      0.17054122869268E+01        46.407
               5        0.000      0.11475114406330E+02       312.254
               6        0.000      0.10260508419520E+03      2792.026
 P
               1        3.000     -0.26374017337187E+00        -7.177               2.78E-10
               2        0.000      0.22668525792104E+00         6.168
               3        0.000      0.14438082668277E+01        39.288
               4        0.000      0.88300553419616E+01       240.278
 D
               1        0.000      0.80132170237989E+00        21.805
               2        0.000      0.36862099873375E+01       100.307
 F
               1        0.000      0.44269920690810E+01       120.465


 Partially Occupied:
               1 P                -0.26374017337187E+00
  
 HOMO :        2 S                -0.10391111868865E+01
 LUMO :        3 S                 0.19539275059925E+00
  


 Orbital Energies, all Irreps
 ========================================

 Irrep        no.  (spin)   Occup              E (au)                E (eV)
 ---------------------------------------------------------------------------
 S             1             2.00       -0.15824133117986E+02      -430.5966
 S             2             2.00       -0.10391111868865E+01       -28.2757
 P             1             3.00       -0.26374017337187E+00        -7.1767
 S             3             0.00        0.19539275059925E+00         5.3169
 P             2             0.00        0.22668525792104E+00         6.1684
 D             1             0.00        0.80132170237989E+00        21.8051
 P             3             0.00        0.14438082668277E+01        39.2880
 S             4             0.00        0.17054122869268E+01        46.4066
 D             2             0.00        0.36862099873375E+01       100.3069
 F             1             0.00        0.44269920690810E+01       120.4646
 P             4             0.00        0.88300553419616E+01       240.2780
 S             5             0.00        0.11475114406330E+02       312.2538
 S             6             0.00        0.10260508419520E+03      2792.0264


 All Electron Calculation, thus no Orbital Energies of the Core Orbitals are calculated



 =======================================
 M U L L I K E N   P O P U L A T I O N S
 =======================================
  
 The survey below gives for each atom:
 a) the total charge (Z minus electrons)
 b) the net spin polarization (nr of electrons spin-A minus spin-B)
 c) for each spin the atomic electron valence density (integrated) per L-value.

 Atom              Charge    Spin density          S         P         D         F
 ----              ------    ------------       ------    ------    ------    ------
 1 N              -0.0000                       4.0000    3.0000    0.0000    0.0000

 Populations of individual BAS functions
 ----------------------------------------
 1 N            0.0827  1.7540 -0.1224  0.1961  2.1493 -0.0597  0.0333  0.0333  0.0333  0.2802
                0.2802  0.2802  0.5225  0.5225  0.5225  0.1641  0.1641  0.1641  0.0000  0.0000
                0.0000  0.0000  0.0000  0.0000  0.0000  0.0000  0.0000  0.0000  0.0000  0.0000
                0.0000  0.0000  0.0000  0.0000  0.0000  0.0000  0.0000  0.0000  0.0000  0.0000

 Gross Charges per Atom (Z minus electrons)
 ==========================================
            -0.0000
 Net Total: -0.00000000



 =======================================================================
 Electrostatic potential at the Nuclei due to electrons and other nuclei
 =======================================================================
  
         Atom                  Potential
         ----                  ---------
     1)   N                  18.14809416
 
 
 ========================
 No memory problems found
 ========================
 
 Maximum number of active allocate calls:         454
 
 *******************************************************************************

                             A D F   E X I T
 NORMAL TERMINATION



 =================
 Timing Statistics
 =================
  
 Total Used :                     CPU=        0.73      System=        0.06     Elapsed=        1.05

 Calls  Section                     ( Mean, Percentage )
 ---------------------------------------------------------------------------------------------------
     3  ><      ................      0.00    0.36             0.00    0.01             0.00    0.26
     1  INIT    ................      0.03    4.42             0.00    1.82             0.30   28.07
     1  GEOMET  ................      0.03    4.04             0.03   43.68             0.06    5.23
     1  INPUTA  ................      0.00    0.33             0.00    1.73             0.00    0.32
     1  MAINSY  ................      0.01    1.29             0.00    0.00             0.01    0.90
     1  SYMFIT  ................      0.00    0.13             0.00    0.00             0.00    0.09
     1  CORORT  ................      0.00    0.09             0.00    0.00             0.00    0.06
     1  SYMORB  ................      0.00    0.10             0.00    0.00             0.00    0.07
     1  FITINT  ................      0.01    1.51             0.00    2.45             0.01    1.19
     1  CLSMAT  ................      0.00    0.14             0.00    0.73             0.00    0.14
     1  ORTHON  ................      0.01    0.79             0.00    0.11             0.01    0.56
     1  GENPT   ................      0.02    2.15             0.00    1.66             0.02    1.59
     1  PTBAS   ................      0.00    0.50             0.00    0.00             0.00    0.35
    14  FOCKY   ................      0.04   73.39             0.00   35.48             0.04   53.01
    14  FOCKTR  ................      0.00    1.44             0.00    0.15             0.00    1.00
    14  SDIIS   ................      0.00    4.07             0.00    5.39             0.00    3.14
     1  COREPS  ................      0.02    2.37             0.00    3.44             0.02    1.84
     1  POPAN   ................      0.01    0.95             0.00    0.00             0.01    0.66
     1  DEBYE   ................      0.00    0.21             0.00    0.00             0.00    0.15
     1  EXIT PROCEDURE .........      0.01    1.72             0.00    3.34             0.01    1.38


 Currently Open Files (EXIT00)
 ====================

 Unit    Access Format  Status   Type       Ident (file)
 -------------------------------------------------------
   3      SEQ    FORM   TRANSP  NORMAL      LOGFILE
                                          ( logfile )


 Buffered I/O statistics
 =======================
 Memory available:                     67108864
 Number of records fitting in memory:     16131
 Input :   0.1% of                        43285  *4k bytes
 Output:   9.6% of                         2166  *4k bytes
 Records from serial files evicted:           0
                    others evicted:           0
 Hash table lookups:      87496 with          0 conflicts (  0.00%)

 ***************************************************************************************************
 (LOGFILE)
 <Mar23-2019> <10:00:01>  ADF 2018  RunTime: Mar23-2019 10:00:01  Nodes: 1  Procs: 1
 <Mar23-2019> <10:00:01>  Hydrogen (QZ, all electron, 5S 2P 2D)
 <Mar23-2019> <10:00:01>  RunType   : CREATE
 <Mar23-2019> <10:00:01>  Net Charge: 0 (Nuclei minus Electrons)
 <Mar23-2019> <10:00:01>  Symmetry  : ATOM
  Coordinates
    Atom         X           Y           Z   (Angstrom)
    1.H         0.000000    0.000000    0.000000
 <Mar23-2019> <10:00:01>  >>>> CORORT
 <Mar23-2019> <10:00:01>  >>>> FITINT
 <Mar23-2019> <10:00:01>  >>>> CLSMAT
 <Mar23-2019> <10:00:01>  >>>> ORTHON
 <Mar23-2019> <10:00:01>  >>>> GENPT
 <Mar23-2019> <10:00:01>  Block Length=  64
 <Mar23-2019> <10:00:01>  >>>> PTBAS
 <Mar23-2019> <10:00:01>  >>>> CYCLE
 <Mar23-2019> <10:00:01>  CalcFitR12Fit
 <Mar23-2019> <10:00:01>  CalcFitCoeff
 <Mar23-2019> <10:00:01>              |Error|         MaxErr       Wt(A-DIIS)
 <Mar23-2019> <10:00:01>      1      0.00000000      0.00000000
 <Mar23-2019> <10:00:01>      2      0.09398034      0.08680783
 <Mar23-2019> <10:00:01>      3      0.00816067      0.00672960    100.0
 <Mar23-2019> <10:00:01>      4      0.00130545      0.00094557      0.0
 <Mar23-2019> <10:00:01>      5      0.00013734      0.00010961      0.0
 <Mar23-2019> <10:00:01>      6      0.00000273      0.00000237      0.0
 <Mar23-2019> <10:00:01>      7      0.00000002      0.00000002      0.0
 <Mar23-2019> <10:00:01>      8      0.00000000      0.00000000      0.0
 <Mar23-2019> <10:00:01>  SCF converged
 <Mar23-2019> <10:00:01>      9      0.00000000      0.00000000      0.0
 <Mar23-2019> <10:00:01>  >>>> POPAN
 <Mar23-2019> <10:00:01>  >>>> DEBYE
 <Mar23-2019> <10:00:01>  NORMAL TERMINATION
 <Mar23-2019> <10:00:01>  END
 <Mar23-2019> <10:00:01>  ADF 2018  RunTime: Mar23-2019 10:00:01  Nodes: 1  Procs: 1
 <Mar23-2019> <10:00:01>   6S 4P 2D 1F even-tempered basis for N
 <Mar23-2019> <10:00:01>  RunType   : CREATE
 <Mar23-2019> <10:00:01>  Net Charge: 0 (Nuclei minus Electrons)
 <Mar23-2019> <10:00:01>  Symmetry  : ATOM
  Coordinates
    Atom         X           Y           Z   (Angstrom)
    1.N         0.000000    0.000000    0.000000
 <Mar23-2019> <10:00:01>  >>>> CORORT
 <Mar23-2019> <10:00:01>  >>>> FITINT
 <Mar23-2019> <10:00:01>  >>>> CLSMAT
 <Mar23-2019> <10:00:01>  >>>> ORTHON
 <Mar23-2019> <10:00:01>  >>>> GENPT
 <Mar23-2019> <10:00:01>  Block Length=  76
 <Mar23-2019> <10:00:01>  >>>> PTBAS
 <Mar23-2019> <10:00:01>  >>>> CYCLE
 <Mar23-2019> <10:00:02>  CalcFitR12Fit
 <Mar23-2019> <10:00:02>  CalcFitCoeff
 <Mar23-2019> <10:00:02>              |Error|         MaxErr       Wt(A-DIIS)
 <Mar23-2019> <10:00:02>      1      0.00000000      0.00000000
 <Mar23-2019> <10:00:02>      2      6.93403078      3.69175654    100.0
 <Mar23-2019> <10:00:02>      3      1.81882348      1.45020375    100.0
 <Mar23-2019> <10:00:02>      4      1.04404229      0.53780371    100.0
 <Mar23-2019> <10:00:02>      5      0.54457685      0.34101502    100.0
 <Mar23-2019> <10:00:02>      6      0.23826996      0.13927226    100.0
 <Mar23-2019> <10:00:02>      7      0.11760059      0.07148512     71.2
 <Mar23-2019> <10:00:02>      8      0.04188574      0.02569397     24.9
 <Mar23-2019> <10:00:02>      9      0.00469952      0.00279823      1.8
 <Mar23-2019> <10:00:02>     10      0.00008287      0.00005207      0.0
 <Mar23-2019> <10:00:02>     11      0.00000875      0.00000565      0.0
 <Mar23-2019> <10:00:02>     12      0.00000002      0.00000001      0.0
 <Mar23-2019> <10:00:02>     13      0.00000000      0.00000000      0.0
 <Mar23-2019> <10:00:02>  SCF converged
 <Mar23-2019> <10:00:02>     14      0.00000000      0.00000000      0.0
 <Mar23-2019> <10:00:02>  >>>> POPAN
 <Mar23-2019> <10:00:02>  >>>> DEBYE
 <Mar23-2019> <10:00:02>  NORMAL TERMINATION
 <Mar23-2019> <10:00:02>  END
 
Create C   file=ET-pVQZ-C
XC
  HartreeFock
End
  HartreeFock

 *******************************************************************************
 *                                                                             *
 *  -------------------------------------                                      *
 *   Amsterdam Density Functional  (ADF)         2018                          *
 *  -------------------------------------                                      *
 *                                               r70630 2018-11-24             *
 *                                                                             *
 *                                                                             *
 *                              =================                              *
 *                              |               |                              *
 *                              |     A D F     |                              *
 *                              |               |                              *
 *                              =================                              *
 *                                                                             *
 *                                                                             *
 *   Online information and documentation:  https://www.scm.com/support/       *
 *   E-mail:  support@scm.com   info@scm.com                                   *
 *                                                                             *
 *   Scientific publications using ADF results must be properly referenced     *
 *   See the User Manuals (or the web site) for recommended citations          *
 *   The terms and conditions of the End User License Agreement apply to       *
 *   the use of ADF, https://www.scm.com/license-terms/                        *
 *                                                                             *
 **********************  x86_64_linux_intel / intelmpi  ************************
 
 Licensed to: Mr. Vladimir Konjkov / Florida Institute of Technology / Melbourne / Florida / USA
 SCM User ID: u21173
  
 ADF 2018  RunTime: Mar23-2019 10:00:02  Nodes: 1  Procs: 1

 Temporary files are created in /tmp/kid_0.1221182570

  6S 4P 2D 1F even-tempered basis for C



 ===========================
 A T T A C H E D   F I L E S
 ===========================
  
 CREATE - Data File:    ET-pVQZ-C
                        6S 4P 2D 1F even-tempered basis for C



 ===============================
 M O D E L   P A R A M E T E R S
 ===============================
  
 DENSITY FUNCTIONAL POTENTIAL (scf)
    Hybrid:                            HARTREEFOCK                             == Not Default ==

 SPIN  (restricted / unrestr.)
    Molecule:                          Restricted                               

 OTHER ASPECTS
    Relativistic Corrections:          ---                                      

    Nuclear Charge Density Model:      Point Charge Nuclei                      
    Core Treatment:                    Frozen Orbital(s)                        

    Hyperfine or Zeeman Interaction:   ---                                      



 =====================================
 S Y M M E T R Y ,   E L E C T R O N S
 =====================================
  
 Symmetry: ATOM

 Irreducible Representations, including subspecies
 -------------------------------------------------
 S
 P:x  P:y  P:z
 D:z2  D:x2-y2  D:xy  D:xz  D:yz
 F:z3  F:z  F:xyz  F:z2x  F:z2y  F:x  F:y


 Configuration of Valence Electrons
 ==================================

          Occupation Numbers
          -------------------------------------------------
 S        2*2
 P        2
 D        0
 F        0
          -------------------------------------------------

 Total:   6

 Net Charge: 0 (Nuclei minus Electrons)

 Preset values for MO occupations will be applied through SCF cycle no. 1000000
 Thereafter, the program will assign electrons to MOs that are spatially
 similar to the occupied MOs in a "reference" cycle ("KeepOrbitals").
 The reference cycle is always the PREVIOUS cycle: it will evolve with
 the SCF procedure.



 ================================
 (Slater-type)  F U N C T I O N S  ***  (Basis and Fit)  ***
 ================================
  

 Atom Type    1  (C)
 ==============

 Valence Basis Sets:  13
 -----------------------
   1 S    9.518678
   1 S    5.672633
   1 S    3.380592
   1 S    2.014656
   1 S    1.200629
   1 S    0.715512
   2 P    3.786356
   2 P    2.103531
   2 P    1.168628
   2 P    0.649238
   3 D    2.951610
   3 D    1.639783
   4 F    3.300000

 Charge Fitting Sets (for the computation of the Coulomb Potential):  45
 -----------------------------------------------------------------------
   1 S   31.550878
   1 S   21.706829
   1 S   14.934178
   1 S   10.274632
   1 S    7.068890
   1 S    4.863357
   1 S    3.345963
   1 S    2.302004
   1 S    1.583766
   1 S    1.089622
   2 P   26.249890
   2 P   17.447584
   2 P   11.596932
   2 P    7.708163
   2 P    5.123405
   2 P    3.405387
   2 P    2.263468
   2 P    1.504465
   2 P    0.999977
   3 D   25.649433
   3 D   17.961788
   3 D   12.578283
   3 D    8.808321
   3 D    6.168292
   3 D    4.319532
   3 D    3.024883
   3 D    2.118265
   3 D    1.483379
   3 D    1.038781
   4 F   19.657895
   4 F   14.454334
   4 F   10.628186
   4 F    7.814842
   4 F    5.746207
   4 F    4.225152
   4 F    3.106730
   4 F    2.284360
   4 F    1.679676
   5 G   13.093194
   5 G    9.874204
   5 G    7.446609
   5 G    5.615844
   5 G    4.235177
   5 G    3.193949
   5 G    2.408710


 BAS: List of all Elementary Cartesian Basis Functions
 =====================================================

 The numbering in the list below (to the right of the function characteristics) is referred
 to in print-outs of MO eigenvectors and Mulliken populations in the BAS representation
 (as contrasted to the SFO representation).

 Notes:
 1. The functions are characterized by a polynomial prefactor (powers of x,y,z and r) and
    an exponential decay factor alpha.
 2. Since the basis sets are specific for an atom TYPE, the individual functions occur on
    all atoms of that type.
 3. The word 'Core' in the left margin signals that it is a Core Function (CF) : not a
    degree of freedom in the valence set, but only used to ensure orthogonalization of
    the other valence basis functions on the frozen Core Orbitals.


 (power of) X  Y  Z  R     Alpha  on Atom
            ==========     =====     ==========

 C                                    1
                                  ---------------------------------------------------------------------------
            0  0  0  0     9.519      1
            0  0  0  0     5.673      2
            0  0  0  0     3.381      3
            0  0  0  0     2.015      4
            0  0  0  0     1.201      5
            0  0  0  0     0.716      6
            1  0  0  0     3.786      7
            0  1  0  0     3.786      8
            0  0  1  0     3.786      9
            1  0  0  0     2.104     10
            0  1  0  0     2.104     11
            0  0  1  0     2.104     12
            1  0  0  0     1.169     13
            0  1  0  0     1.169     14
            0  0  1  0     1.169     15
            1  0  0  0     0.649     16
            0  1  0  0     0.649     17
            0  0  1  0     0.649     18
            2  0  0  0     2.952     19
            1  1  0  0     2.952     20
            1  0  1  0     2.952     21
            0  2  0  0     2.952     22
            0  1  1  0     2.952     23
            0  0  2  0     2.952     24
            2  0  0  0     1.640     25
            1  1  0  0     1.640     26
            1  0  1  0     1.640     27
            0  2  0  0     1.640     28
            0  1  1  0     1.640     29
            0  0  2  0     1.640     30
            3  0  0  0     3.300     31
            2  1  0  0     3.300     32
            2  0  1  0     3.300     33
            1  2  0  0     3.300     34
            1  1  1  0     3.300     35
            1  0  2  0     3.300     36
            0  3  0  0     3.300     37
            0  2  1  0     3.300     38
            0  1  2  0     3.300     39
            0  0  3  0     3.300     40

 Total number of charge fitting functions (nprimf)       292
 Total number of Cartesian basis functions (naos)         40
 Total number of Cartesian core functions  (ncos)          0



 BAS: List of all Elementary Cartesian Basis Functions
 =====================================================

 The numbering in the list below (to the right of the function characteristics) is referred
 to in print-outs of MO eigenvectors and Mulliken populations in the BAS representation
 (as contrasted to the SFO representation).

 Notes:
 1. The functions are characterized by a polynomial prefactor (powers of x,y,z and r) and
    an exponential decay factor alpha.
 2. Since the basis sets are specific for an atom TYPE, the individual functions occur on
    all atoms of that type.
 3. The word 'Core' in the left margin signals that it is a Core Function (CF) : not a
    degree of freedom in the valence set, but only used to ensure orthogonalization of
    the other valence basis functions on the frozen Core Orbitals.


 (power of) X  Y  Z  R     Alpha  on Atom
            ==========     =====     ==========

 C                                    1
                                  ---------------------------------------------------------------------------
            0  0  0  0     9.519      1
            0  0  0  0     5.673      2
            0  0  0  0     3.381      3
            0  0  0  0     2.015      4
            0  0  0  0     1.201      5
            0  0  0  0     0.716      6
            1  0  0  0     3.786      7
            0  1  0  0     3.786      8
            0  0  1  0     3.786      9
            1  0  0  0     2.104     10
            0  1  0  0     2.104     11
            0  0  1  0     2.104     12
            1  0  0  0     1.169     13
            0  1  0  0     1.169     14
            0  0  1  0     1.169     15
            1  0  0  0     0.649     16
            0  1  0  0     0.649     17
            0  0  1  0     0.649     18
            2  0  0  0     2.952     19
            1  1  0  0     2.952     20
            1  0  1  0     2.952     21
            0  2  0  0     2.952     22
            0  1  1  0     2.952     23
            0  0  2  0     2.952     24
            2  0  0  0     1.640     25
            1  1  0  0     1.640     26
            1  0  1  0     1.640     27
            0  2  0  0     1.640     28
            0  1  1  0     1.640     29
            0  0  2  0     1.640     30
            3  0  0  0     3.300     31
            2  1  0  0     3.300     32
            2  0  1  0     3.300     33
            1  2  0  0     3.300     34
            1  1  1  0     3.300     35
            1  0  2  0     3.300     36
            0  3  0  0     3.300     37
            0  2  1  0     3.300     38
            0  1  2  0     3.300     39
            0  0  3  0     3.300     40
1
 ***************************************************************************************************



                                              ***********************
                                              *  T E C H N I C A L  *
                                              ***********************
  



 =============================================================
 P A R A L L E L I Z A T I O N  and  V E C T O R I Z A T I O N
 =============================================================
  
 Nr of parallel processes:                                1
 Maximum vector length in NumInt loops:                 128

 IO buffersize (Mb):                                     64.000000



 =====================
 S C F   U P D A T E S
 =====================
  
 Max. nr. of cycles:                               300
 Convergence criterion:                              0.0000000100
   secondary criterion:                              0.0000000100

 Mix parameter (when DIIS does not apply):           0.2000000000
 Special mix parameter for the first cycle:          1.0000000000
 Mixed ADIIS+DIIS will be used
    Max number of expansion vectors:                10
    Pure ADIIS when Max([F,P]) is above              0.1000000000
    Pure DIIS when Max([F,P]) is below               0.0010000000
 Automatic ElectronSmearing (in case of problematic SCF convergence) disabled



 =================
 P R E C I S I O N  ***  (General: NumInt, NeglectFunctionTails, ...)  ***
 =================
  

 NumInt:           Target precision:                12.0000000000
 -------           Initial precision:               10.0000000000
                   Min. precision (optimization):   10.0000000000

 Neglect Functions:          Basis functions:        0.1000000000E-13
 ------------------          Fit functions:          0.1000000000E-13



 ===========================
 L I N E A R   S C A L I N G
 ===========================
  

 Cut-off radii density fit:                        0.1000000000E-97
 Overlap cut-off criterion AO matrix elements:     0.1000000000E-97
 Cut-offs for Coulomb potential and fitted density:0.1000000000E-97
 Cut-off criterion for Coulomb multipole terms:    0.1000000000E-97
 Progressive Convergence parameter:                 0.000000000    
1
 ***************************************************************************************************



                                            ***************************
                                            *  C O M P U T A T I O N  *
                                            ***************************
  

 Number of elements of the density matrix on this node (used, total):       820       820



 ===========================================
 Numerical Integration : Fuzzy Cells (Becke)
 ===========================================
  
 Becke grid quality: VERYGOOD       
  
 Lebedev angular grid order:             min:  13 max:  41
 Nr. of radial points:                   min:  76 max:  76

 Total nr. of points:         76
 Nr. of blocks:                1
 Block length:                76
 Nr. of dummy points:          0


 Test of Precision of the Numerical Integration Grid
 ===================================================

 Integral of the Total Core Density:                   0.00000000000000



 ========================
 Density Fitting (zlmFit)
 ========================
  
 ZlmFit Fit Quality: VERYGOOD       
  
 Max L-expansion:                        min:   0 max:   0
 Nr. of radial interpolation points:     min: 150 max: 150



 ======================
 RI Hartree-Fock Scheme
 ======================
  
 Fit Set Quality     : NORMAL
 Integration Quality : NORMAL
 Threshold Quality   : NORMAL
 Response Quality    : DEFAULT
 Is Range Separated  :  F
 
 RIHartreeFock Dependency: number of modified vectors:           1



 =====
 S C F  ***  ScaSCF  ***
 =====
  

 CYCLE    1
 SCF Error: norm([F,P])=      0.000000000000, max([F,P])=      0.000000000000
 orbitals (Q,E):
 ---------------
 S :1...6            ( 2.00   -17.9998)  ( 2.00    -4.4970)  ( 0.00    -1.9984)  ( 0.00    -1.1068)
                     ( 0.00     2.9028)  ( 0.00    64.9004)
 P :1...4            ( 2.00    -4.4871)  ( 0.00    -1.9583)  ( 0.00    -1.0154)  ( 0.00     0.5457)
 D :1...2            ( 0.00    -1.9811)  ( 0.00    -0.4455)
 F :1...1            ( 0.00     0.4950)

 CYCLE    2
  SDIIS (wt  0.000):  1.0000  0.0000
 A-DIIS (wt  1.000):  0.0000  1.0000
  DIIS coefficients:  0.0000  1.0000
 SCF Error: norm([F,P])=      4.757448768082, max([F,P])=      2.887857176781
 orbitals (Q,E):
 ---------------
 S :1...3            ( 2.00    -9.1788)  ( 2.00    -0.1483)  ( 0.00     0.2101)
 P :1...2            ( 2.00     0.1104)  ( 0.00     0.4402)
 D :1...1            ( 0.00     0.9859)
 F :1...1            ( 0.00     5.0880)

 CYCLE    3
  SDIIS (wt  0.000):  0.1070  0.8930
 A-DIIS (wt  1.000):  0.0000  1.0000
  DIIS coefficients:  0.0000  1.0000
 SCF Error: norm([F,P])=      0.986486555038, max([F,P])=      0.808244858677
 orbitals (Q,E):
 ---------------
 S :1...3            ( 2.00   -12.6052)  ( 2.00    -1.3121)  ( 0.00    -0.0370)
 P :1...2            ( 2.00    -0.5950)  ( 0.00    -0.0058)
 D :1...1            ( 0.00     0.3826)
 F :1...1            ( 0.00     3.6886)

 CYCLE    4
  SDIIS (wt  0.000): -0.0265  0.2961  0.7304
 A-DIIS (wt  1.000):  0.0000  0.0665  0.9335
  DIIS coefficients:  0.0000  0.0665  0.9335
 SCF Error: norm([F,P])=      0.570835227594, max([F,P])=      0.352075511546
 orbitals (Q,E):
 ---------------
 S :1...3            ( 2.00   -11.0503)  ( 2.00    -0.6384)  ( 0.00     0.1670)
 P :1...2            ( 2.00    -0.0171)  ( 0.00     0.1819)
 D :1...1            ( 0.00     0.8324)
 F :1...1            ( 0.00     4.5785)

 CYCLE    5
  SDIIS (wt  0.000): -0.0038 -0.0760  0.2463  0.8335
 A-DIIS (wt  1.000):  0.0000  0.0000  0.0000  1.0000
  DIIS coefficients:  0.0000  0.0000  0.0000  1.0000
 SCF Error: norm([F,P])=      0.227190297117, max([F,P])=      0.163431431678
 orbitals (Q,E):
 ---------------
 S :1...3            ( 2.00   -11.7486)  ( 2.00    -0.9013)  ( 0.00     0.1170)
 P :1...2            ( 2.00    -0.2226)  ( 0.00     0.1302)
 D :1...1            ( 0.00     0.6874)
 F :1...1            ( 0.00     4.2394)

 CYCLE    6
  SDIIS (wt  0.125):  0.0014  0.0006 -0.1293  0.2232  0.9041
 A-DIIS (wt  0.875):  0.0000  0.0000  0.0000  0.0335  0.9665
  DIIS coefficients:  0.0002  0.0001 -0.0162  0.0572  0.9587
 SCF Error: norm([F,P])=      0.130557018853, max([F,P])=      0.087611755790
 orbitals (Q,E):
 ---------------
 S :1...3            ( 2.00   -11.3879)  ( 2.00    -0.7502)  ( 0.00     0.1547)
 P :1...2            ( 2.00    -0.1030)  ( 0.00     0.1646)
 D :1...1            ( 0.00     0.7812)
 F :1...1            ( 0.00     4.4368)

 CYCLE    7
  SDIIS (wt  0.677):  0.0001  0.0025 -0.0000 -0.1087  0.1693  0.9368
 A-DIIS (wt  0.323):  0.0000  0.0000  0.0000  0.0000  0.0000  1.0000
  DIIS coefficients:  0.0001  0.0017 -0.0000 -0.0736  0.1147  0.9572
 SCF Error: norm([F,P])=      0.047882547226, max([F,P])=      0.032951423160
 orbitals (Q,E):
 ---------------
 S :1...3            ( 2.00   -11.5063)  ( 2.00    -0.7949)  ( 0.00     0.1454)
 P :1...2            ( 2.00    -0.1388)  ( 0.00     0.1555)
 D :1...1            ( 0.00     0.7551)
 F :1...1            ( 0.00     4.3772)

 CYCLE    8
  SDIIS (wt  0.948): -0.0000 -0.0001  0.0027  0.0235 -0.1121 -0.1544  1.2405
 A-DIIS (wt  0.052):  0.0000  0.0000  0.0000  0.0000  0.0000  0.0000  1.0000
  DIIS coefficients: -0.0000 -0.0001  0.0025  0.0222 -0.1062 -0.1463  1.2279
 SCF Error: norm([F,P])=      0.008869391913, max([F,P])=      0.006179229633
 orbitals (Q,E):
 ---------------
 S :1...3            ( 2.00   -11.4886)  ( 2.00    -0.7876)  ( 0.00     0.1472)
 P :1...2            ( 2.00    -0.1331)  ( 0.00     0.1571)
 D :1...1            ( 0.00     0.7595)
 F :1...1            ( 0.00     4.3867)

 CYCLE    9
  SDIIS (wt  1.000):  0.0000 -0.0000 -0.0001  0.0014 -0.0010 -0.0128  0.0006  1.0118
  DIIS coefficients:  0.0000 -0.0000 -0.0001  0.0014 -0.0010 -0.0128  0.0006  1.0118
 SCF Error: norm([F,P])=      0.000149703462, max([F,P])=      0.000096859477
 orbitals (Q,E):
 ---------------
 S :1...3            ( 2.00   -11.4890)  ( 2.00    -0.7878)  ( 0.00     0.1472)
 P :1...2            ( 2.00    -0.1332)  ( 0.00     0.1571)
 D :1...1            ( 0.00     0.7595)
 F :1...1            ( 0.00     4.3865)

 CYCLE   10
  SDIIS (wt  1.000): -0.0000  0.0000  0.0000 -0.0002 -0.0003  0.0024  0.0071 -0.2510  1.2420
  DIIS coefficients: -0.0000  0.0000  0.0000 -0.0002 -0.0003  0.0024  0.0071 -0.2510  1.2420
 SCF Error: norm([F,P])=      0.000004183492, max([F,P])=      0.000002599989
 orbitals (Q,E):
 ---------------
 S :1...3            ( 2.00   -11.4890)  ( 2.00    -0.7878)  ( 0.00     0.1472)
 P :1...2            ( 2.00    -0.1332)  ( 0.00     0.1571)
 D :1...1            ( 0.00     0.7595)
 F :1...1            ( 0.00     4.3865)

 CYCLE   11
  SDIIS (wt  1.000): -0.0000  0.0000  0.0000 -0.0000 -0.0001 -0.0002  0.0087 -0.0526  1.0443
  DIIS coefficients: -0.0000  0.0000  0.0000 -0.0000 -0.0001 -0.0002  0.0087 -0.0526  1.0443
 SCF Error: norm([F,P])=      0.000000560876, max([F,P])=      0.000000357926
 orbitals (Q,E):
 ---------------
 S :1...3            ( 2.00   -11.4890)  ( 2.00    -0.7878)  ( 0.00     0.1472)
 P :1...2            ( 2.00    -0.1332)  ( 0.00     0.1571)
 D :1...1            ( 0.00     0.7595)
 F :1...1            ( 0.00     4.3865)

 CYCLE   12
  SDIIS (wt  1.000): -0.0000  0.0000  0.0000 -0.0002  0.0014 -0.0155  1.0142
  DIIS coefficients: -0.0000  0.0000  0.0000 -0.0002  0.0014 -0.0155  1.0142
 SCF Error: norm([F,P])=      0.000000033658, max([F,P])=      0.000000024744
 orbitals (Q,E):
 ---------------
 S :1...3            ( 2.00   -11.4890)  ( 2.00    -0.7878)  ( 0.00     0.1472)
[...]
 PI           14             0.00        0.52518565166234E+01       142.9103
 SIGMA        25             0.00        0.59358480663422E+01       161.5226
 PI           15             0.00        0.59467826243815E+01       161.8202
 DELTA         8             0.00        0.62164392922125E+01       169.1579
 SIGMA        26             0.00        0.65393937778884E+01       177.9460
 PI           16             0.00        0.66309922439463E+01       180.4385
 SIGMA        27             0.00        0.69758277272842E+01       189.8219
 SIGMA        28             0.00        0.81211617621411E+01       220.9881
 PI           17             0.00        0.86826294774465E+01       236.2664
 PI           18             0.00        0.10160966882973E+02       276.4940
 SIGMA        29             0.00        0.10556269812044E+02       287.2507
 SIGMA        30             0.00        0.12394375496269E+02       337.2681
 SIGMA        31             0.00        0.12536699268486E+02       341.1409
 SIGMA        32             0.00        0.16978216860539E+02       462.0008
 SIGMA        33             0.00        0.18372039581683E+02       499.9286
 SIGMA        34             0.00        0.86170760060445E+02      2344.8257
 SIGMA        35             0.00        0.11631857997176E+03      3165.1896


 All Electron Calculation, thus no Orbital Energies of the Core Orbitals are calculated



 =======================
 T O T A L   E N E R G Y  ***  (contributions)  ***
 =======================
  

*** Note ***

The requirements to the integration accuracy are somewhat higher than for bond energies.
One can expect an accuracy of roughly (accint-2) decimal places, where accint is the
general integration accuracy parameter.
The Coulomb energy is the sum of the Hartree energy (electron-electron Coulomb interaction)
and the nuclear-electron attraction energy. It includes the correction for the first-order
fit error in the Hartree energy.
The potential energy is the sum of the nuclear repulsion energy, the Coulomb energy,
and the exchange-correlation energy.

Kinetic energy           =           92.698378273583

Nuclear repulsion energy =           23.861936164686
Coulomb energy           =         -197.435199688640
XC energy                =          -12.037752607232
Total potential energy   =         -185.611016131186

----------------------------------------------------
Total energy             =          -92.912637857603
Virial theorem           =            2.002311362809
----------------------------------------------------

 Gross Charges per Atom (Z minus electrons)
 ==========================================
            -0.1768    0.5393   -0.3626
 Net Total: -0.00000000



 =================================================================
 M U L T I P O L E   D E R I V E D   C H A R G E   A N A L Y S I S
 =================================================================

 This charge analysis uses the atomic multipoles (obtained from the fitted density) up to some level X,
 and reconstructs these multipoles exactly (up to level X) by distributing charges over all atoms.
 This is achieved by using Lagrange multipliers and a weight function to keep the multipoles local.

 Dummy atoms can be included (by setting INCDUM in MDC-block to 1) to obtain a fractional charge.
 This is generally useful and necessary only for small symmetrical molecules, when there are not
 enough degrees of freedom to reconstruct the multipoles.

 Since the atomic multipoles are reconstructed up to level X,
 the molecular multipoles are represented also up to level X.
 The recommended level is to reconstruct up to quadrupole : -> MDC-q charges.

 See: M. Swart, P.Th. van Duijnen, J.G. Snijders, J.Comput.Chem., (2001), p. 79-88.

 ------------------------------------------------------------- 
 Atomic electronic multipole moments from SCF equations (a.u.)
 ------------------------------------------------------------- 

   atom        charge        dip-x     dip-y     dip-z      quad-xx   quad-xy   quad-xz   quad-yy   quad-yz   quad-zz
 --------------------------------------------------------------------------------------------------------------------
    1 H      0.051378     0.000000 -0.000000 -0.083479    -0.111505 -0.000000  0.000000 -0.111505 -0.000000  0.223010
    2 C      0.180533    -0.000000  0.000000 -0.214205    -0.446996  0.000000  0.000000 -0.446996 -0.000000  0.893992
    3 N     -0.231911     0.000000 -0.000000 -0.385273    -0.277113  0.000000  0.000000 -0.277113  0.000000  0.554227

 --------------------------------------- 
 Multipole derived atomic charges (a.u.)
 --------------------------------------- 

 The MDC-m charges are just the Monopole terms in the multipole expansion, while for the MDC-d charges
 also the Dipoles are reconstructed. The usually preferred charges are the MDC-q charges.
 These reconstruct the Monopoles, Dipoles and Quadrupoles (both atomic AND molecular).

        Atom    Level:     MDC-m        MDC-d        MDC-q
 ---------------------------------------------------------
     1     H            0.051378     0.170460     0.265842
     2     C            0.180533     0.264122     0.080749
     3     N           -0.231911    -0.434582    -0.346591

 ------------------------------------------------ 
 Average absolute deviations in atomic multipoles
 ------------------------------------------------ 

 Stated here are the average differences between the atomic multipoles
 and the reconstructed atomic multipoles (from the distributed charges).
 If these values are not zero, this means there are not enough degrees of freedom,
 to be able to reconstruct the atomic multipoles. (This usually happens only
 for small and/or highly symmetric molecules). If this is the case, one could add
 dummy atoms as extra point charges (and setting INCDUM in MDC-block to 1).

 Level:                                 MDC-d        MDC-q
 ---------------------------------------------------------
 Charge   (a.u.)                       0.0000       0.0000
 Dipole   (Debye)                      0.0000       0.0000
 Quad.    (a.u.)                       0.1879       0.0000

 --------------------------------------- 
 Represented molecular multipole moments
 --------------------------------------- 

 Given here are the Molecular multipole moments from the atomic charges, and from the Fit Density.
 Note that the atomic charges represent the latter, NOT the ones from the Exact density.

            Q (a.u.)             Dipole moment (Debye)                                          Quadrupole moment (a.u.)
                                 x         y         z              xx        xy        xz        yy        yz        zz
------------------------------------------------------------------------------------------------------------------------
MDC-m        -0.0000        0.0000    0.0000   -1.5514          1.6798    0.0000    0.0000    1.6798    0.0000   -3.3596
MDC-d         0.0000        0.0000    0.0000   -3.2873          3.2986    0.0000    0.0000    3.2986    0.0000   -6.5971
MDC-q        -0.0000        0.0000    0.0000   -3.2873          2.8946    0.0000    0.0000    2.8946    0.0000   -5.7893
 
Fit.Dens.    -0.0000       -0.0000    0.0000   -3.2873          2.8946    0.0000    0.0000    2.8946   -0.0000   -5.7893



 =============
 Dipole Moment  ***  (Debye)  ***
 =============
  
 Vector   :         0.00000000      0.00000000     -3.28732005
 Magnitude:         3.28732005

 This molecular dipole moment is calculated with analytic integration



 =========================================
 Quadrupole Moment (Buckingham convention)  ***  (a.u.)  ***
 =========================================
  
      quad-xx        quad-xy        quad-xz        quad-yy        quad-yz        quad-zz
      2.89465944     0.00000000     0.00000000     2.89465944     0.00000000    -5.78931888

 This molecular quadrupole moment is calculated with analytic integration



 =======================================================================
 Electrostatic potential at the Nuclei due to electrons and other nuclei
 =======================================================================
  
         Atom                  Potential
         ----                  ---------
     1)   H                   0.96052067
     2)   C                  14.68626535
     3)   N                  18.34384653
 
 
 ========================
 No memory problems found
 ========================
 
 Maximum number of active allocate calls:        1075
 
 *******************************************************************************

                             A D F   E X I T
 NORMAL TERMINATION



 =================
 Timing Statistics
 =================
  
 Total Used :                     CPU=       42.52      System=        0.66     Elapsed=       43.95

 Calls  Section                     ( Mean, Percentage )
 ---------------------------------------------------------------------------------------------------
     3  ><      ................      0.00    0.01             0.00    0.00             0.00    0.01
     1  INIT    ................      0.52    1.22             0.01    1.37             0.78    1.78
     1  GEOMET  ................      0.05    0.12             0.04    5.44             0.09    0.20
     1  FRAGM   ................      0.01    0.03             0.00    0.60             0.01    0.03
     1  INPUTA  ................      0.00    0.00             0.00    0.00             0.00    0.00
     1  ATDEN   ................      0.01    0.01             0.00    0.29             0.01    0.02
     1  MAINSY  ................      0.03    0.07             0.00    0.15             0.03    0.07
     1  SYMFIT  ................      0.00    0.00             0.00    0.00             0.00    0.00
     1  CORORT  ................      0.00    0.00             0.00    0.00             0.00    0.00
     1  SYMORB  ................      0.00    0.00             0.00    0.00             0.00    0.00
     1  FITINT  ................      0.07    0.17             0.00    0.00             0.07    0.16
     1  CLSMAT  ................      0.05    0.11             0.02    2.56             0.06    0.14
     1  ORTHON  ................      0.02    0.05             0.00    0.60             0.02    0.05
     1  GENPT   ................      0.15    0.34             0.01    2.11             0.16    0.37
     1  PTBAS   ................      0.18    0.41             0.01    2.06             0.19    0.43
    11  FOCKY   ................      3.44   89.04             0.05   75.60             3.52   88.06
    11  FOCKTR  ................      0.00    0.06             0.00    1.76             0.00    0.10
    11  SDIIS   ................      0.00    0.09             0.00    0.96             0.00    0.10
     1  COREPS  ................      3.14    7.39             0.01    2.12             3.32    7.55
     1  POPAN   ................      0.33    0.77             0.02    3.31             0.35    0.80
     1  DEBYE   ................      0.01    0.01             0.00    0.15             0.01    0.02
     1  EXIT PROCEDURE .........      0.04    0.09             0.01    0.90             0.04    0.10


 Currently Open Files (EXIT00)
 ====================

 Unit    Access Format  Status   Type       Ident (file)
 -------------------------------------------------------
   3      SEQ    FORM   TRANSP  NORMAL      LOGFILE
                                          ( logfile )


 Buffered I/O statistics
 =======================
 Memory available:                     67108864
 Number of records fitting in memory:     16131
 Input :   0.1% of                       137981  *4k bytes
 Output:   4.0% of                        17686  *4k bytes
 Records from serial files evicted:           0
                    others evicted:           0
 Hash table lookups:     348442 with       1380 conflicts (  0.40%)

 ***************************************************************************************************
 (LOGFILE)
 <Mar23-2019> <10:00:01>  ADF 2018  RunTime: Mar23-2019 10:00:01  Nodes: 1  Procs: 1
 <Mar23-2019> <10:00:01>  Hydrogen (QZ, all electron, 5S 2P 2D)
 <Mar23-2019> <10:00:01>  RunType   : CREATE
 <Mar23-2019> <10:00:01>  Net Charge: 0 (Nuclei minus Electrons)
 <Mar23-2019> <10:00:01>  Symmetry  : ATOM
  Coordinates
    Atom         X           Y           Z   (Angstrom)
    1.H         0.000000    0.000000    0.000000
 <Mar23-2019> <10:00:01>  >>>> CORORT
 <Mar23-2019> <10:00:01>  >>>> FITINT
 <Mar23-2019> <10:00:01>  >>>> CLSMAT
 <Mar23-2019> <10:00:01>  >>>> ORTHON
 <Mar23-2019> <10:00:01>  >>>> GENPT
 <Mar23-2019> <10:00:01>  Block Length=  64
 <Mar23-2019> <10:00:01>  >>>> PTBAS
 <Mar23-2019> <10:00:01>  >>>> CYCLE
 <Mar23-2019> <10:00:01>  CalcFitR12Fit
 <Mar23-2019> <10:00:01>  CalcFitCoeff
 <Mar23-2019> <10:00:01>              |Error|         MaxErr       Wt(A-DIIS)
 <Mar23-2019> <10:00:01>      1      0.00000000      0.00000000
 <Mar23-2019> <10:00:01>      2      0.09398034      0.08680783
 <Mar23-2019> <10:00:01>      3      0.00816067      0.00672960    100.0
 <Mar23-2019> <10:00:01>      4      0.00130545      0.00094557      0.0
 <Mar23-2019> <10:00:01>      5      0.00013734      0.00010961      0.0
 <Mar23-2019> <10:00:01>      6      0.00000273      0.00000237      0.0
 <Mar23-2019> <10:00:01>      7      0.00000002      0.00000002      0.0
 <Mar23-2019> <10:00:01>      8      0.00000000      0.00000000      0.0
 <Mar23-2019> <10:00:01>  SCF converged
 <Mar23-2019> <10:00:01>      9      0.00000000      0.00000000      0.0
 <Mar23-2019> <10:00:01>  >>>> POPAN
 <Mar23-2019> <10:00:01>  >>>> DEBYE
 <Mar23-2019> <10:00:01>  NORMAL TERMINATION
 <Mar23-2019> <10:00:01>  END
 <Mar23-2019> <10:00:01>  ADF 2018  RunTime: Mar23-2019 10:00:01  Nodes: 1  Procs: 1
 <Mar23-2019> <10:00:01>   6S 4P 2D 1F even-tempered basis for N
 <Mar23-2019> <10:00:01>  RunType   : CREATE
 <Mar23-2019> <10:00:01>  Net Charge: 0 (Nuclei minus Electrons)
 <Mar23-2019> <10:00:01>  Symmetry  : ATOM
  Coordinates
    Atom         X           Y           Z   (Angstrom)
    1.N         0.000000    0.000000    0.000000
 <Mar23-2019> <10:00:01>  >>>> CORORT
 <Mar23-2019> <10:00:01>  >>>> FITINT
 <Mar23-2019> <10:00:01>  >>>> CLSMAT
 <Mar23-2019> <10:00:01>  >>>> ORTHON
 <Mar23-2019> <10:00:01>  >>>> GENPT
 <Mar23-2019> <10:00:01>  Block Length=  76
 <Mar23-2019> <10:00:01>  >>>> PTBAS
 <Mar23-2019> <10:00:01>  >>>> CYCLE
 <Mar23-2019> <10:00:02>  CalcFitR12Fit
 <Mar23-2019> <10:00:02>  CalcFitCoeff
 <Mar23-2019> <10:00:02>              |Error|         MaxErr       Wt(A-DIIS)
 <Mar23-2019> <10:00:02>      1      0.00000000      0.00000000
 <Mar23-2019> <10:00:02>      2      6.93403078      3.69175654    100.0
 <Mar23-2019> <10:00:02>      3      1.81882348      1.45020375    100.0
 <Mar23-2019> <10:00:02>      4      1.04404229      0.53780371    100.0
 <Mar23-2019> <10:00:02>      5      0.54457685      0.34101502    100.0
 <Mar23-2019> <10:00:02>      6      0.23826996      0.13927226    100.0
 <Mar23-2019> <10:00:02>      7      0.11760059      0.07148512     71.2
 <Mar23-2019> <10:00:02>      8      0.04188574      0.02569397     24.9
 <Mar23-2019> <10:00:02>      9      0.00469952      0.00279823      1.8
 <Mar23-2019> <10:00:02>     10      0.00008287      0.00005207      0.0
 <Mar23-2019> <10:00:02>     11      0.00000875      0.00000565      0.0
 <Mar23-2019> <10:00:02>     12      0.00000002      0.00000001      0.0
 <Mar23-2019> <10:00:02>     13      0.00000000      0.00000000      0.0
 <Mar23-2019> <10:00:02>  SCF converged
 <Mar23-2019> <10:00:02>     14      0.00000000      0.00000000      0.0
 <Mar23-2019> <10:00:02>  >>>> POPAN
 <Mar23-2019> <10:00:02>  >>>> DEBYE
 <Mar23-2019> <10:00:02>  NORMAL TERMINATION
 <Mar23-2019> <10:00:02>  END
 <Mar23-2019> <10:00:02>  ADF 2018  RunTime: Mar23-2019 10:00:02  Nodes: 1  Procs: 1
 <Mar23-2019> <10:00:02>   6S 4P 2D 1F even-tempered basis for C
 <Mar23-2019> <10:00:03>  RunType   : CREATE
 <Mar23-2019> <10:00:03>  Net Charge: 0 (Nuclei minus Electrons)
 <Mar23-2019> <10:00:03>  Symmetry  : ATOM
  Coordinates
    Atom         X           Y           Z   (Angstrom)
    1.C         0.000000    0.000000    0.000000
 <Mar23-2019> <10:00:03>  >>>> CORORT
 <Mar23-2019> <10:00:03>  >>>> FITINT
 <Mar23-2019> <10:00:03>  >>>> CLSMAT
 <Mar23-2019> <10:00:03>  >>>> ORTHON
 <Mar23-2019> <10:00:03>  >>>> GENPT
 <Mar23-2019> <10:00:03>  Block Length=  76
 <Mar23-2019> <10:00:03>  >>>> PTBAS
 <Mar23-2019> <10:00:03>  >>>> CYCLE
 <Mar23-2019> <10:00:03>  CalcFitR12Fit
 <Mar23-2019> <10:00:03>  CalcFitCoeff
 <Mar23-2019> <10:00:03>              |Error|         MaxErr       Wt(A-DIIS)
 <Mar23-2019> <10:00:03>      1      0.00000000      0.00000000
 <Mar23-2019> <10:00:03>      2      4.75744877      2.88785718    100.0
 <Mar23-2019> <10:00:03>      3      0.98648656      0.80824486    100.0
 <Mar23-2019> <10:00:03>      4      0.57083523      0.35207551    100.0
 <Mar23-2019> <10:00:03>      5      0.22719030      0.16343143    100.0
 <Mar23-2019> <10:00:03>      6      0.13055702      0.08761176     87.5
 <Mar23-2019> <10:00:03>      7      0.04788255      0.03295142     32.3
 <Mar23-2019> <10:00:03>      8      0.00886939      0.00617923      5.2
 <Mar23-2019> <10:00:03>      9      0.00014970      0.00009686      0.0
 <Mar23-2019> <10:00:03>     10      0.00000418      0.00000260      0.0
 <Mar23-2019> <10:00:03>     11      0.00000056      0.00000036      0.0
 <Mar23-2019> <10:00:03>     12      0.00000003      0.00000002      0.0
 <Mar23-2019> <10:00:03>     13      0.00000000      0.00000000      0.0
 <Mar23-2019> <10:00:03>  SCF converged
 <Mar23-2019> <10:00:03>     14      0.00000000      0.00000000      0.0
 <Mar23-2019> <10:00:03>  >>>> POPAN
 <Mar23-2019> <10:00:03>  >>>> DEBYE
 <Mar23-2019> <10:00:03>  NORMAL TERMINATION
 <Mar23-2019> <10:00:03>  END
 <Mar23-2019> <10:00:04>  ADF 2018  RunTime: Mar23-2019 10:00:04  Nodes: 1  Procs: 4
 <Mar23-2019> <10:00:04>  HCN
 <Mar23-2019> <10:00:04>  RunType   : SINGLE POINT
 <Mar23-2019> <10:00:04>  Net Charge: 0 (Nuclei minus Electrons)
 <Mar23-2019> <10:00:04>  Symmetry  : C(LIN)
 <Mar23-2019> <10:00:04>  >>>> FRAGM
  Coordinates
    Atom         X           Y           Z   (Angstrom)
    1.H         0.000000    0.000000    0.000000
    2.C         0.000000    0.000000    1.066800
    3.N         0.000000    0.000000    2.223200
 <Mar23-2019> <10:00:04>  >>>> CORORT
 <Mar23-2019> <10:00:04>  >>>> FITINT
 <Mar23-2019> <10:00:04>  >>>> CLSMAT
 <Mar23-2019> <10:00:04>  >>>> ORTHON
 <Mar23-2019> <10:00:04>  >>>> GENPT
 <Mar23-2019> <10:00:04>  Block Length= 128
 <Mar23-2019> <10:00:05>  >>>> PTBAS
 <Mar23-2019> <10:00:05>  >>>> CYCLE
 <Mar23-2019> <10:00:07>  CalcFitR12Fit
 <Mar23-2019> <10:00:07>  CalcFitCoeff
 <Mar23-2019> <10:00:14>              |Error|         MaxErr       Wt(A-DIIS)
 <Mar23-2019> <10:00:14>      1      3.40508265      1.63990466
 <Mar23-2019> <10:00:17>      2      0.52796102      0.20173574    100.0
 <Mar23-2019> <10:00:20>      3      0.44041360      0.17299384    100.0
 <Mar23-2019> <10:00:23>      4      0.16454098      0.07261236     72.3
 <Mar23-2019> <10:00:26>      5      0.11400251      0.04475272     44.2
 <Mar23-2019> <10:00:30>      6      0.01577635      0.00759896      6.7
 <Mar23-2019> <10:00:32>      7      0.00188672      0.00065679      0.0
 <Mar23-2019> <10:00:35>      8      0.00014007      0.00005826      0.0
 <Mar23-2019> <10:00:38>      9      0.00001092      0.00000449      0.0
 <Mar23-2019> <10:00:41>     10      0.00000142      0.00000050      0.0
 <Mar23-2019> <10:00:42>  SCF converged
 <Mar23-2019> <10:00:44>     11      0.00000021      0.00000008      0.0
 <Mar23-2019> <10:00:47>   Total energy        -92.91263786 a.u.
 <Mar23-2019> <10:00:47>  >>>> POPAN
 <Mar23-2019> <10:00:47>  >>>> DEBYE
 <Mar23-2019> <10:00:47>  NORMAL TERMINATION
 <Mar23-2019> <10:00:47>  END
