 
Create H   file=TZ2P-H
XC
  HartreeFock
End
  HartreeFock

 *******************************************************************************
 *                                                                             *
 *  -------------------------------------                                      *
 *   Amsterdam Density Functional  (ADF)         2018                          *
 *  -------------------------------------                                      *
 *                                               r70630 2018-11-24             *
 *                                                                             *
 *                                                                             *
 *                              =================                              *
 *                              |               |                              *
 *                              |     A D F     |                              *
 *                              |               |                              *
 *                              =================                              *
 *                                                                             *
 *                                                                             *
 *   Online information and documentation:  https://www.scm.com/support/       *
 *   E-mail:  support@scm.com   info@scm.com                                   *
 *                                                                             *
 *   Scientific publications using ADF results must be properly referenced     *
 *   See the User Manuals (or the web site) for recommended citations          *
 *   The terms and conditions of the End User License Agreement apply to       *
 *   the use of ADF, https://www.scm.com/license-terms/                        *
 *                                                                             *
 **********************  x86_64_linux_intel / intelmpi  ************************
 
 Licensed to: Mr. Vladimir Konjkov / Florida Institute of Technology / Melbourne / Florida / USA
 SCM User ID: u21173
  
 ADF 2018  RunTime: Mar23-2019 10:00:02  Nodes: 1  Procs: 1

 Temporary files are created in /tmp/kid_0.1560681592

 Hydrogen (TZ2P)



 ===========================
 A T T A C H E D   F I L E S
 ===========================
  
 CREATE - Data File:    TZ2P-H
                        Hydrogen (TZ2P)



 ===============================
 M O D E L   P A R A M E T E R S
 ===============================
  
 DENSITY FUNCTIONAL POTENTIAL (scf)
    Hybrid:                            HARTREEFOCK                             == Not Default ==

 SPIN  (restricted / unrestr.)
    Molecule:                          Restricted                               

 OTHER ASPECTS
    Relativistic Corrections:          ---                                      

    Nuclear Charge Density Model:      Point Charge Nuclei                      
    Core Treatment:                    Frozen Orbital(s)                        

    Hyperfine or Zeeman Interaction:   ---                                      



 =====================================
 S Y M M E T R Y ,   E L E C T R O N S
 =====================================
  
 Symmetry: ATOM

 Irreducible Representations, including subspecies
 -------------------------------------------------
 S
 P:x  P:y  P:z
 D:z2  D:x2-y2  D:xy  D:xz  D:yz
 F:z3  F:z  F:xyz  F:z2x  F:z2y  F:x  F:y


 Configuration of Valence Electrons
 ==================================

          Occupation Numbers
          -------------------------------------------------
 S        1
 P        0
 D        0
 F        0
          -------------------------------------------------

 Total:   1

 Net Charge: 0 (Nuclei minus Electrons)

 Preset values for MO occupations will be applied through SCF cycle no. 1000000
 Thereafter, the program will assign electrons to MOs that are spatially
 similar to the occupied MOs in a "reference" cycle ("KeepOrbitals").
 The reference cycle is always the PREVIOUS cycle: it will evolve with
 the SCF procedure.



 ================================
 (Slater-type)  F U N C T I O N S  ***  (Basis and Fit)  ***
 ================================
  

 Atom Type    1  (H)
 ==============

 Valence Basis Sets:   5
 -----------------------
   1 S    0.690000
   1 S    0.920000
   1 S    1.580000
   2 P    1.250000
   3 D    2.500000

 Charge Fitting Sets (for the computation of the Coulomb Potential):  11
 -----------------------------------------------------------------------
   1 S    3.160000
   1 S    2.090000
   1 S    1.380000
   2 S    1.500000
   2 P    4.000000
   2 P    2.650000
   2 P    1.750000
   3 D    4.000000
   3 D    2.500000
   4 F    3.000000
   5 G    4.000000


 BAS: List of all Elementary Cartesian Basis Functions
 =====================================================

 The numbering in the list below (to the right of the function characteristics) is referred
 to in print-outs of MO eigenvectors and Mulliken populations in the BAS representation
 (as contrasted to the SFO representation).

 Notes:
 1. The functions are characterized by a polynomial prefactor (powers of x,y,z and r) and
    an exponential decay factor alpha.
 2. Since the basis sets are specific for an atom TYPE, the individual functions occur on
    all atoms of that type.
 3. The word 'Core' in the left margin signals that it is a Core Function (CF) : not a
    degree of freedom in the valence set, but only used to ensure orthogonalization of
    the other valence basis functions on the frozen Core Orbitals.


 (power of) X  Y  Z  R     Alpha  on Atom
            ==========     =====     ==========

 H                                    1
                                  ---------------------------------------------------------------------------
            0  0  0  0     0.690      1
            0  0  0  0     0.920      2
            0  0  0  0     1.580      3
            1  0  0  0     1.250      4
            0  1  0  0     1.250      5
            0  0  1  0     1.250      6
            2  0  0  0     2.500      7
            1  1  0  0     2.500      8
            1  0  1  0     2.500      9
            0  2  0  0     2.500     10
            0  1  1  0     2.500     11
            0  0  2  0     2.500     12

 Total number of charge fitting functions (nprimf)        50
 Total number of Cartesian basis functions (naos)         12
 Total number of Cartesian core functions  (ncos)          0



 BAS: List of all Elementary Cartesian Basis Functions
 =====================================================

 The numbering in the list below (to the right of the function characteristics) is referred
 to in print-outs of MO eigenvectors and Mulliken populations in the BAS representation
 (as contrasted to the SFO representation).

 Notes:
 1. The functions are characterized by a polynomial prefactor (powers of x,y,z and r) and
    an exponential decay factor alpha.
 2. Since the basis sets are specific for an atom TYPE, the individual functions occur on
    all atoms of that type.
 3. The word 'Core' in the left margin signals that it is a Core Function (CF) : not a
    degree of freedom in the valence set, but only used to ensure orthogonalization of
    the other valence basis functions on the frozen Core Orbitals.


 (power of) X  Y  Z  R     Alpha  on Atom
            ==========     =====     ==========

 H                                    1
                                  ---------------------------------------------------------------------------
            0  0  0  0     0.690      1
            0  0  0  0     0.920      2
            0  0  0  0     1.580      3
            1  0  0  0     1.250      4
            0  1  0  0     1.250      5
            0  0  1  0     1.250      6
            2  0  0  0     2.500      7
            1  1  0  0     2.500      8
            1  0  1  0     2.500      9
            0  2  0  0     2.500     10
            0  1  1  0     2.500     11
            0  0  2  0     2.500     12
1
 ***************************************************************************************************



                                              ***********************
                                              *  T E C H N I C A L  *
                                              ***********************
  



 =============================================================
 P A R A L L E L I Z A T I O N  and  V E C T O R I Z A T I O N
 =============================================================
  
 Nr of parallel processes:                                1
 Maximum vector length in NumInt loops:                 128

 IO buffersize (Mb):                                     64.000000



 =====================
 S C F   U P D A T E S
 =====================
  
 Max. nr. of cycles:                               300
 Convergence criterion:                              0.0000000100
   secondary criterion:                              0.0000000100

 Mix parameter (when DIIS does not apply):           0.2000000000
 Special mix parameter for the first cycle:          1.0000000000
 Mixed ADIIS+DIIS will be used
    Max number of expansion vectors:                10
    Pure ADIIS when Max([F,P]) is above              0.1000000000
    Pure DIIS when Max([F,P]) is below               0.0010000000
 Automatic ElectronSmearing (in case of problematic SCF convergence) disabled



 =================
 P R E C I S I O N  ***  (General: NumInt, NeglectFunctionTails, ...)  ***
 =================
  

 NumInt:           Target precision:                12.0000000000
 -------           Initial precision:               10.0000000000
                   Min. precision (optimization):   10.0000000000

 Neglect Functions:          Basis functions:        0.1000000000E-13
 ------------------          Fit functions:          0.1000000000E-13



 ===========================
 L I N E A R   S C A L I N G
 ===========================
  

 Cut-off radii density fit:                        0.1000000000E-97
 Overlap cut-off criterion AO matrix elements:     0.1000000000E-97
 Cut-offs for Coulomb potential and fitted density:0.1000000000E-97
 Cut-off criterion for Coulomb multipole terms:    0.1000000000E-97
 Progressive Convergence parameter:                 0.000000000    
1
 ***************************************************************************************************



                                            ***************************
                                            *  C O M P U T A T I O N  *
                                            ***************************
  

 Number of elements of the density matrix on this node (used, total):        78        78



 ===========================================
 Numerical Integration : Fuzzy Cells (Becke)
 ===========================================
  
 Becke grid quality: VERYGOOD       
  
 Lebedev angular grid order:             min:  13 max:  41
 Nr. of radial points:                   min:  64 max:  64

 Total nr. of points:         64
 Nr. of blocks:                1
 Block length:                64
 Nr. of dummy points:          0


 Test of Precision of the Numerical Integration Grid
 ===================================================

 Integral of the Total Core Density:                   0.00000000000000



 ========================
 Density Fitting (zlmFit)
 ========================
  
 ZlmFit Fit Quality: VERYGOOD       
  
 Max L-expansion:                        min:   0 max:   0
 Nr. of radial interpolation points:     min: 130 max: 130



 ======================
 RI Hartree-Fock Scheme
 ======================
  
 Fit Set Quality     : NORMAL
 Integration Quality : NORMAL
 Threshold Quality   : NORMAL
 Response Quality    : DEFAULT
 Is Range Separated  :  F
 
 RIHartreeFock Dependency: number of modified vectors:           0



 =====
 S C F  ***  ScaSCF  ***
 =====
  

 CYCLE    1
 SCF Error: norm([F,P])=      0.000000000000, max([F,P])=      0.000000000000
 orbitals (Q,E):
 ---------------
 S :1...3            ( 1.00    -0.5000)  ( 0.00    -0.0900)  ( 0.00     1.2939)
 P :1...1            ( 0.00     0.1562)
 D :1...1            ( 0.00     2.2917)

 CYCLE    2
 SCF Error: norm([F,P])=      0.093550165040, max([F,P])=      0.091499853236
 orbitals (Q,E):
 ---------------
 S :1...2            ( 1.00    -0.2002)  ( 0.00     0.1961)
 P :1...1            ( 0.00     0.6197)
 D :1...1            ( 0.00     2.8910)

 CYCLE    3
  SDIIS (wt  0.000): -0.0533  1.0533
 A-DIIS (wt  1.000):  0.0000  1.0000
  DIIS coefficients:  0.0000  1.0000
 SCF Error: norm([F,P])=      0.007924550659, max([F,P])=      0.006189096750
 orbitals (Q,E):
 ---------------
 S :1...2            ( 1.00    -0.2265)  ( 0.00     0.1911)
 P :1...1            ( 0.00     0.5880)
 D :1...1            ( 0.00     2.8424)

 CYCLE    4
  SDIIS (wt  0.999): -0.1357  1.1357
 A-DIIS (wt  0.001):  0.0000  1.0000
  DIIS coefficients: -0.1356  1.1356
 SCF Error: norm([F,P])=      0.001172235538, max([F,P])=      0.001088763385
 orbitals (Q,E):
 ---------------
 S :1...2            ( 1.00    -0.2295)  ( 0.00     0.1899)
 P :1...1            ( 0.00     0.5837)
 D :1...1            ( 0.00     2.8358)

 CYCLE    5
  SDIIS (wt  1.000): -0.0334  1.0334
  DIIS coefficients: -0.0334  1.0334
 SCF Error: norm([F,P])=      0.000051836577, max([F,P])=      0.000047658375
 orbitals (Q,E):
 ---------------
 S :1...2            ( 1.00    -0.2295)  ( 0.00     0.1899)
 P :1...1            ( 0.00     0.5837)
 D :1...1            ( 0.00     2.8358)

 CYCLE    6
  SDIIS (wt  1.000):  0.0005  0.9995
  DIIS coefficients:  0.0005  0.9995
 SCF Error: norm([F,P])=      0.000001775468, max([F,P])=      0.000001665874
 orbitals (Q,E):
 ---------------
 S :1...2            ( 1.00    -0.2295)  ( 0.00     0.1899)
 P :1...1            ( 0.00     0.5837)
 D :1...1            ( 0.00     2.8358)

 CYCLE    7
  SDIIS (wt  1.000): -0.0872  1.0872
  DIIS coefficients: -0.0872  1.0872
 SCF Error: norm([F,P])=      0.000000217860, max([F,P])=      0.000000193947
 orbitals (Q,E):
 ---------------
 S :1...2            ( 1.00    -0.2295)  ( 0.00     0.1899)
 P :1...1            ( 0.00     0.5837)
 D :1...1            ( 0.00     2.8358)

 CYCLE    8
  SDIIS (wt  1.000): -0.0763  1.0763
  DIIS coefficients: -0.0763  1.0763
 SCF Error: norm([F,P])=      0.000000018052, max([F,P])=      0.000000017798
 orbitals (Q,E):
 ---------------
 S :1...2            ( 1.00    -0.2295)  ( 0.00     0.1899)
 P :1...1            ( 0.00     0.5837)
 D :1...1            ( 0.00     2.8358)

 CYCLE    9
  SDIIS (wt  1.000): -0.0005  1.0005
  DIIS coefficients: -0.0005  1.0005
 SCF Error: norm([F,P])=      0.000000000405, max([F,P])=      0.000000000405
 orbitals (Q,E):
 ---------------
 S :1...2            ( 1.00    -0.2295)  ( 0.00     0.1899)
 P :1...1            ( 0.00     0.5837)
 D :1...1            ( 0.00     2.8358)

 SCF CONVERGED

 CYCLE   10
1
 ***************************************************************************************************



                                                *******************
                                                *  R E S U L T S  *
                                                *******************
  
  
 Hartree-Fock exchange energy:  -0.128221907609443     
 *** Setting up for NEW gradients in Focky
 *** Using FIT density in Focky

 Orbital Energies, per Irrep and Spin:
 ======================================
                        Occup              E (au)              E (eV)       Diff (eV) with prev. cycle
                        -----      --------------------        ------       --------------------------
 S
               1        1.000     -0.22948813933977E+00        -6.245              -3.39E-09
               2        0.000      0.18987308504404E+00         5.167
               3        0.000      0.18209523899756E+01        49.551
 P
               1        0.000      0.58370573574157E+00        15.883
 D
               1        0.000      0.28358041768385E+01        77.166


 Partially Occupied:
               1 S                -0.22948813933977E+00
  
 LUMO :        2 S                 0.18987308504404E+00
  


 Orbital Energies, all Irreps
 ========================================

 Irrep        no.  (spin)   Occup              E (au)                E (eV)
 ---------------------------------------------------------------------------
 S             1             1.00       -0.22948813933977E+00        -6.2447
 S             2             0.00        0.18987308504404E+00         5.1667
 P             1             0.00        0.58370573574157E+00        15.8834
 S             3             0.00        0.18209523899756E+01        49.5506
 D             1             0.00        0.28358041768385E+01        77.1662


 All Electron Calculation, thus no Orbital Energies of the Core Orbitals are calculated



 =======================================
 M U L L I K E N   P O P U L A T I O N S
 =======================================
  
 The survey below gives for each atom:
 a) the total charge (Z minus electrons)
 b) the net spin polarization (nr of electrons spin-A minus spin-B)
 c) for each spin the atomic electron valence density (integrated) per L-value.

 Atom              Charge    Spin density          S         P         D         F
 ----              ------    ------------       ------    ------    ------    ------
 1 H              -0.0000                       1.0000    0.0000    0.0000    0.0000

 Populations of individual BAS functions
 ----------------------------------------
 1 H            0.6268  0.2704  0.1028  0.0000  0.0000  0.0000  0.0000  0.0000  0.0000  0.0000
                0.0000  0.0000

 Gross Charges per Atom (Z minus electrons)
 ==========================================
            -0.0000
 Net Total: -0.00000000



 =======================================================================
 Electrostatic potential at the Nuclei due to electrons and other nuclei
 =======================================================================
  
         Atom                  Potential
         ----                  ---------
     1)   H                   0.84364541
 
 
 ========================
 No memory problems found
 ========================
 
 Maximum number of active allocate calls:         370
 
 *******************************************************************************

                             A D F   E X I T
 NORMAL TERMINATION



 =================
 Timing Statistics
 =================
  
 Total Used :                     CPU=        0.46      System=        0.05     Elapsed=        1.84

 Calls  Section                     ( Mean, Percentage )
 ---------------------------------------------------------------------------------------------------
     3  ><      ................      0.00    0.36             0.00    2.44             0.00    0.17
     1  INIT    ................      0.03    7.03             0.00    9.13             1.33   72.25
     1  GEOMET  ................      0.03    6.76             0.02   41.35             0.06    2.99
     1  INPUTA  ................      0.00    0.82             0.00    0.10             0.00    0.21
     1  MAINSY  ................      0.01    1.97             0.00    1.77             0.01    0.57
     1  SYMFIT  ................      0.00    0.21             0.00    0.03             0.00    0.05
     1  CORORT  ................      0.00    0.11             0.00    0.37             0.00    0.04
     1  SYMORB  ................      0.00    0.14             0.00    0.00             0.00    0.04
     1  FITINT  ................      0.01    1.24             0.00    0.08             0.01    0.31
     1  CLSMAT  ................      0.00    0.24             0.00    0.00             0.00    0.07
     1  ORTHON  ................      0.01    1.25             0.00    0.27             0.01    0.45
     1  GENPT   ................      0.02    3.39             0.00    1.55             0.02    0.93
     1  PTBAS   ................      0.00    0.96             0.00    2.21             0.01    0.33
    10  FOCKY   ................      0.03   63.71             0.00   23.29             0.03   17.59
    10  FOCKTR  ................      0.00    1.23             0.00    0.99             0.00    0.34
    10  SDIIS   ................      0.00    4.21             0.00    7.95             0.00    1.77
     1  COREPS  ................      0.01    2.59             0.00    2.80             0.01    0.75
     1  POPAN   ................      0.00    1.04             0.00    1.88             0.01    0.32
     1  DEBYE   ................      0.00    0.15             0.00    1.53             0.00    0.10
     1  EXIT PROCEDURE .........      0.01    2.60             0.00    2.25             0.01    0.74


 Currently Open Files (EXIT00)
 ====================

 Unit    Access Format  Status   Type       Ident (file)
 -------------------------------------------------------
   3      SEQ    FORM   TRANSP  NORMAL      LOGFILE
                                          ( logfile )


 Buffered I/O statistics
 =======================
 Memory available:                     67108864
 Number of records fitting in memory:     16131
 Input :   0.1% of                        22954  *4k bytes
 Output:  16.6% of                         1048  *4k bytes
 Records from serial files evicted:           0
                    others evicted:           0
 Hash table lookups:      46864 with          0 conflicts (  0.00%)

 ***************************************************************************************************
 (LOGFILE)
 <Mar23-2019> <10:00:02>  ADF 2018  RunTime: Mar23-2019 10:00:02  Nodes: 1  Procs: 1
 <Mar23-2019> <10:00:02>  Hydrogen (TZ2P)
 <Mar23-2019> <10:00:02>  RunType   : CREATE
 <Mar23-2019> <10:00:02>  Net Charge: 0 (Nuclei minus Electrons)
 <Mar23-2019> <10:00:02>  Symmetry  : ATOM
  Coordinates
    Atom         X           Y           Z   (Angstrom)
    1.H         0.000000    0.000000    0.000000
 <Mar23-2019> <10:00:02>  >>>> CORORT
 <Mar23-2019> <10:00:02>  >>>> FITINT
 <Mar23-2019> <10:00:02>  >>>> CLSMAT
 <Mar23-2019> <10:00:02>  >>>> ORTHON
 <Mar23-2019> <10:00:02>  >>>> GENPT
 <Mar23-2019> <10:00:02>  Block Length=  64
 <Mar23-2019> <10:00:02>  >>>> PTBAS
 <Mar23-2019> <10:00:02>  >>>> CYCLE
 <Mar23-2019> <10:00:02>  CalcFitR12Fit
 <Mar23-2019> <10:00:02>  CalcFitCoeff
 <Mar23-2019> <10:00:02>              |Error|         MaxErr       Wt(A-DIIS)
 <Mar23-2019> <10:00:02>      1      0.00000000      0.00000000
 <Mar23-2019> <10:00:02>      2      0.09355017      0.09149985
 <Mar23-2019> <10:00:02>      3      0.00792455      0.00618910    100.0
 <Mar23-2019> <10:00:02>      4      0.00117224      0.00108876      0.1
 <Mar23-2019> <10:00:02>      5      0.00005184      0.00004766      0.0
 <Mar23-2019> <10:00:02>      6      0.00000178      0.00000167      0.0
 <Mar23-2019> <10:00:02>      7      0.00000022      0.00000019      0.0
 <Mar23-2019> <10:00:02>      8      0.00000002      0.00000002      0.0
 <Mar23-2019> <10:00:02>      9      0.00000000      0.00000000      0.0
 <Mar23-2019> <10:00:02>  SCF converged
 <Mar23-2019> <10:00:02>     10      0.00000000      0.00000000      0.0
 <Mar23-2019> <10:00:02>  >>>> POPAN
 <Mar23-2019> <10:00:02>  >>>> DEBYE
 <Mar23-2019> <10:00:02>  NORMAL TERMINATION
 <Mar23-2019> <10:00:02>  END
 
Create N   file=TZ2P-N
XC
  HartreeFock
End
  HartreeFock

 *******************************************************************************
 *                                                                             *
 *  -------------------------------------                                      *
 *   Amsterdam Density Functional  (ADF)         2018                          *
 *  -------------------------------------                                      *
 *                                               r70630 2018-11-24             *
 *                                                                             *
 *                                                                             *
 *                              =================                              *
 *                              |               |                              *
 *                              |     A D F     |                              *
 *                              |               |                              *
 *                              =================                              *
 *                                                                             *
 *                                                                             *
 *   Online information and documentation:  https://www.scm.com/support/       *
 *   E-mail:  support@scm.com   info@scm.com                                   *
 *                                                                             *
 *   Scientific publications using ADF results must be properly referenced     *
 *   See the User Manuals (or the web site) for recommended citations          *
 *   The terms and conditions of the End User License Agreement apply to       *
 *   the use of ADF, https://www.scm.com/license-terms/                        *
 *                                                                             *
 **********************  x86_64_linux_intel / intelmpi  ************************
 
 Licensed to: Mr. Vladimir Konjkov / Florida Institute of Technology / Melbourne / Florida / USA
 SCM User ID: u21173
  
 ADF 2018  RunTime: Mar23-2019 10:00:03  Nodes: 1  Procs: 1

 Temporary files are created in /tmp/kid_0.1745445756

 Nitrogen (TZ2P)



 ===========================
 A T T A C H E D   F I L E S
 ===========================
  
 CREATE - Data File:    TZ2P-N
                        Nitrogen (TZ2P)



 ===============================
 M O D E L   P A R A M E T E R S
 ===============================
  
 DENSITY FUNCTIONAL POTENTIAL (scf)
    Hybrid:                            HARTREEFOCK                             == Not Default ==

 SPIN  (restricted / unrestr.)
    Molecule:                          Restricted                               

 OTHER ASPECTS
    Relativistic Corrections:          ---                                      

    Nuclear Charge Density Model:      Point Charge Nuclei                      
    Core Treatment:                    Frozen Orbital(s)                        

    Hyperfine or Zeeman Interaction:   ---                                      



 =====================================
 S Y M M E T R Y ,   E L E C T R O N S
 =====================================
  
 Symmetry: ATOM

 Irreducible Representations, including subspecies
 -------------------------------------------------
 S
 P:x  P:y  P:z
 D:z2  D:x2-y2  D:xy  D:xz  D:yz
 F:z3  F:z  F:xyz  F:z2x  F:z2y  F:x  F:y


 Configuration of Valence Electrons
 ==================================

          Occupation Numbers
          -------------------------------------------------
 S        2*2
 P        3
 D        0
 F        0
          -------------------------------------------------

 Total:   7

 Net Charge: 0 (Nuclei minus Electrons)

 Preset values for MO occupations will be applied through SCF cycle no. 1000000
 Thereafter, the program will assign electrons to MOs that are spatially
 similar to the occupied MOs in a "reference" cycle ("KeepOrbitals").
 The reference cycle is always the PREVIOUS cycle: it will evolve with
 the SCF procedure.



 ================================
 (Slater-type)  F U N C T I O N S  ***  (Basis and Fit)  ***
 ================================
  

 Atom Type    1  (N)
 ==============

 Valence Basis Sets:  10
 -----------------------
   1 S    8.740000
   1 S    5.900000
   2 S    5.150000
   2 S    2.500000
   2 S    1.500000
   2 P    3.680000
   2 P    1.880000
   2 P    1.000000
   3 D    2.200000
   4 F    3.300000

 Charge Fitting Sets (for the computation of the Coulomb Potential):  22
 -----------------------------------------------------------------------
   1 S   17.480000
   2 S   20.150000
   2 S   13.990000
   2 S    9.710000
   2 S    6.740000
   3 S    6.860000
   3 S    5.040000
   3 S    3.700000
   3 S    2.720000
   3 S    2.000000
   2 P   11.320000
   2 P    6.730000
   3 P    5.920000
   3 P    3.820000
   3 P    2.460000
   3 D    8.100000
   3 D    5.080000
   3 D    3.190000
   3 D    2.000000
   4 F    5.800000
   4 F    3.600000
   5 G    4.500000


 BAS: List of all Elementary Cartesian Basis Functions
 =====================================================

 The numbering in the list below (to the right of the function characteristics) is referred
 to in print-outs of MO eigenvectors and Mulliken populations in the BAS representation
 (as contrasted to the SFO representation).

 Notes:
 1. The functions are characterized by a polynomial prefactor (powers of x,y,z and r) and
    an exponential decay factor alpha.
 2. Since the basis sets are specific for an atom TYPE, the individual functions occur on
    all atoms of that type.
 3. The word 'Core' in the left margin signals that it is a Core Function (CF) : not a
    degree of freedom in the valence set, but only used to ensure orthogonalization of
    the other valence basis functions on the frozen Core Orbitals.


 (power of) X  Y  Z  R     Alpha  on Atom
            ==========     =====     ==========

 N                                    1
                                  ---------------------------------------------------------------------------
            0  0  0  0     8.740      1
            0  0  0  0     5.900      2
            0  0  0  1     5.150      3
            0  0  0  1     2.500      4
            0  0  0  1     1.500      5
            1  0  0  0     3.680      6
            0  1  0  0     3.680      7
            0  0  1  0     3.680      8
            1  0  0  0     1.880      9
            0  1  0  0     1.880     10
            0  0  1  0     1.880     11
            1  0  0  0     1.000     12
            0  1  0  0     1.000     13
            0  0  1  0     1.000     14
            2  0  0  0     2.200     15
            1  1  0  0     2.200     16
            1  0  1  0     2.200     17
            0  2  0  0     2.200     18
            0  1  1  0     2.200     19
            0  0  2  0     2.200     20
            3  0  0  0     3.300     21
            2  1  0  0     3.300     22
            2  0  1  0     3.300     23
            1  2  0  0     3.300     24
            1  1  1  0     3.300     25
            1  0  2  0     3.300     26
            0  3  0  0     3.300     27
            0  2  1  0     3.300     28
            0  1  2  0     3.300     29
            0  0  3  0     3.300     30

 Total number of charge fitting functions (nprimf)        84
 Total number of Cartesian basis functions (naos)         30
 Total number of Cartesian core functions  (ncos)          0



 BAS: List of all Elementary Cartesian Basis Functions
 =====================================================

 The numbering in the list below (to the right of the function characteristics) is referred
 to in print-outs of MO eigenvectors and Mulliken populations in the BAS representation
 (as contrasted to the SFO representation).

 Notes:
 1. The functions are characterized by a polynomial prefactor (powers of x,y,z and r) and
    an exponential decay factor alpha.
 2. Since the basis sets are specific for an atom TYPE, the individual functions occur on
    all atoms of that type.
 3. The word 'Core' in the left margin signals that it is a Core Function (CF) : not a
    degree of freedom in the valence set, but only used to ensure orthogonalization of
    the other valence basis functions on the frozen Core Orbitals.


 (power of) X  Y  Z  R     Alpha  on Atom
            ==========     =====     ==========

 N                                    1
                                  ---------------------------------------------------------------------------
            0  0  0  0     8.740      1
            0  0  0  0     5.900      2
            0  0  0  1     5.150      3
            0  0  0  1     2.500      4
            0  0  0  1     1.500      5
            1  0  0  0     3.680      6
            0  1  0  0     3.680      7
            0  0  1  0     3.680      8
            1  0  0  0     1.880      9
            0  1  0  0     1.880     10
            0  0  1  0     1.880     11
            1  0  0  0     1.000     12
            0  1  0  0     1.000     13
            0  0  1  0     1.000     14
            2  0  0  0     2.200     15
            1  1  0  0     2.200     16
            1  0  1  0     2.200     17
            0  2  0  0     2.200     18
            0  1  1  0     2.200     19
            0  0  2  0     2.200     20
            3  0  0  0     3.300     21
            2  1  0  0     3.300     22
            2  0  1  0     3.300     23
            1  2  0  0     3.300     24
            1  1  1  0     3.300     25
            1  0  2  0     3.300     26
            0  3  0  0     3.300     27
            0  2  1  0     3.300     28
            0  1  2  0     3.300     29
            0  0  3  0     3.300     30
1
 ***************************************************************************************************



                                              ***********************
                                              *  T E C H N I C A L  *
                                              ***********************
  



 =============================================================
 P A R A L L E L I Z A T I O N  and  V E C T O R I Z A T I O N
 =============================================================
  
 Nr of parallel processes:                                1
 Maximum vector length in NumInt loops:                 128

 IO buffersize (Mb):                                     64.000000



 =====================
 S C F   U P D A T E S
 =====================
  
 Max. nr. of cycles:                               300
 Convergence criterion:                              0.0000000100
   secondary criterion:                              0.0000000100

 Mix parameter (when DIIS does not apply):           0.2000000000
 Special mix parameter for the first cycle:          1.0000000000
 Mixed ADIIS+DIIS will be used
    Max number of expansion vectors:                10
    Pure ADIIS when Max([F,P]) is above              0.1000000000
    Pure DIIS when Max([F,P]) is below               0.0010000000
 Automatic ElectronSmearing (in case of problematic SCF convergence) disabled



 =================
 P R E C I S I O N  ***  (General: NumInt, NeglectFunctionTails, ...)  ***
 =================
  

 NumInt:           Target precision:                12.0000000000
 -------           Initial precision:               10.0000000000
                   Min. precision (optimization):   10.0000000000

 Neglect Functions:          Basis functions:        0.1000000000E-13
 ------------------          Fit functions:          0.1000000000E-13



 ===========================
 L I N E A R   S C A L I N G
 ===========================
  

 Cut-off radii density fit:                        0.1000000000E-97
 Overlap cut-off criterion AO matrix elements:     0.1000000000E-97
 Cut-offs for Coulomb potential and fitted density:0.1000000000E-97
 Cut-off criterion for Coulomb multipole terms:    0.1000000000E-97
 Progressive Convergence parameter:                 0.000000000    
1
 ***************************************************************************************************



                                            ***************************
                                            *  C O M P U T A T I O N  *
                                            ***************************
  

 Number of elements of the density matrix on this node (used, total):       465       465



 ===========================================
 Numerical Integration : Fuzzy Cells (Becke)
 ===========================================
  
 Becke grid quality: VERYGOOD       
  
 Lebedev angular grid order:             min:  13 max:  41
 Nr. of radial points:                   min:  72 max:  72

 Total nr. of points:         72
 Nr. of blocks:                1
 Block length:                72
 Nr. of dummy points:          0


 Test of Precision of the Numerical Integration Grid
 ===================================================

 Integral of the Total Core Density:                   0.00000000000000



 ========================
 Density Fitting (zlmFit)
 ========================
  
 ZlmFit Fit Quality: VERYGOOD       
  
 Max L-expansion:                        min:   0 max:   0
 Nr. of radial interpolation points:     min: 160 max: 160



 ======================
 RI Hartree-Fock Scheme
 ======================
  
 Fit Set Quality     : NORMAL
 Integration Quality : NORMAL
 Threshold Quality   : NORMAL
 Response Quality    : DEFAULT
 Is Range Separated  :  F
 
 RIHartreeFock Dependency: number of modified vectors:           0



 =====
 S C F  ***  ScaSCF  ***
 =====
  

 CYCLE    1
 SCF Error: norm([F,P])=      0.000000000000, max([F,P])=      0.000000000000
 orbitals (Q,E):
 ---------------
 S :1...5            ( 2.00   -24.4993)  ( 2.00    -6.1004)  ( 0.00    -2.6599)  ( 0.00     0.7211)
                     ( 0.00    54.4424)
 P :1...3            ( 3.00    -6.1210)  ( 0.00    -2.6439)  ( 0.00    -1.4084)
 D :1...1            ( 0.00    -2.7133)
 F :1...1            ( 0.00    -0.3300)

 CYCLE    2
  SDIIS (wt  0.000):  1.0000 -0.0000
 A-DIIS (wt  1.000):  0.0000  1.0000
  DIIS coefficients:  0.0000  1.0000
 SCF Error: norm([F,P])=      6.568824591390, max([F,P])=      4.172702936128
 orbitals (Q,E):
 ---------------
 S :1...3            ( 2.00   -12.5303)  ( 2.00    -0.1528)  ( 0.00     1.0917)
 P :1...2            ( 3.00     0.2630)  ( 0.00     1.0151)
 D :1...1            ( 0.00     2.1374)
 F :1...1            ( 0.00     5.1530)

 CYCLE    3
  SDIIS (wt  0.000):  0.1427  0.8573
 A-DIIS (wt  1.000):  0.0000  1.0000
  DIIS coefficients:  0.0000  1.0000
 SCF Error: norm([F,P])=      1.724820947190, max([F,P])=      1.334858053684
 orbitals (Q,E):
 ---------------
 S :1...3            ( 2.00   -17.4524)  ( 2.00    -1.7077)  ( 0.00     0.2755)
 P :1...2            ( 3.00    -0.8658)  ( 0.00     0.1237)
 D :1...1            ( 0.00     0.9421)
 F :1...1            ( 0.00     3.6835)

 CYCLE    4
  SDIIS (wt  0.000): -0.0627  0.2782  0.7845
 A-DIIS (wt  1.000):  0.0000  0.0000  1.0000
  DIIS coefficients:  0.0000  0.0000  1.0000
 SCF Error: norm([F,P])=      1.055283794703, max([F,P])=      0.631833081118
 orbitals (Q,E):
 ---------------
 S :1...3            ( 2.00   -15.0157)  ( 2.00    -0.7638)  ( 0.00     0.8802)
 P :1...2            ( 3.00    -0.0329)  ( 0.00     0.5838)
 D :1...1            ( 0.00     1.7634)
 F :1...1            ( 0.00     4.7031)

 CYCLE    5
  SDIIS (wt  0.000): -0.0106 -0.1151  0.2778  0.8479
 A-DIIS (wt  1.000):  0.0000  0.0000  0.0090  0.9910
  DIIS coefficients:  0.0000  0.0000  0.0090  0.9910
 SCF Error: norm([F,P])=      0.481351744293, max([F,P])=      0.331127000391
 orbitals (Q,E):
 ---------------
 S :1...3            ( 2.00   -16.2396)  ( 2.00    -1.2002)  ( 0.00     0.6261)
 P :1...2            ( 3.00    -0.4023)  ( 0.00     0.3891)
 D :1...1            ( 0.00     1.4017)
 F :1...1            ( 0.00     4.2555)

 CYCLE    6
  SDIIS (wt  0.000):  0.0010 -0.0058 -0.1177  0.2429  0.8796
 A-DIIS (wt  1.000):  0.0000  0.0000  0.0000  0.0000  1.0000
  DIIS coefficients:  0.0000  0.0000  0.0000  0.0000  1.0000
 SCF Error: norm([F,P])=      0.252309651754, max([F,P])=      0.164122515039
 orbitals (Q,E):
 ---------------
 S :1...3            ( 2.00   -15.6159)  ( 2.00    -0.9636)  ( 0.00     0.7717)
 P :1...2            ( 3.00    -0.1988)  ( 0.00     0.4974)
 D :1...1            ( 0.00     1.6034)
 F :1...1            ( 0.00     4.5055)

 CYCLE    7
  SDIIS (wt  0.194):  0.0000  0.0025  0.0013 -0.1390  0.1976  0.9375
 A-DIIS (wt  0.806):  0.0000  0.0000  0.0000  0.0000  0.0000  1.0000
  DIIS coefficients:  0.0000  0.0005  0.0003 -0.0270  0.0384  0.9878
 SCF Error: norm([F,P])=      0.121079209369, max([F,P])=      0.080761684086
 orbitals (Q,E):
 ---------------
 S :1...3            ( 2.00   -15.9061)  ( 2.00    -1.0692)  ( 0.00     0.7087)
 P :1...2            ( 3.00    -0.2897)  ( 0.00     0.4501)
 D :1...1            ( 0.00     1.5143)
 F :1...1            ( 0.00     4.3952)

 CYCLE    8
  SDIIS (wt  0.676):  0.0000  0.0008 -0.0016 -0.0338  0.3810  0.6536
 A-DIIS (wt  0.324):  0.0000  0.0000  0.0000  0.0000  0.0000  1.0000
  DIIS coefficients:  0.0000  0.0005 -0.0011 -0.0229  0.2577  0.7657
 SCF Error: norm([F,P])=      0.049847748703, max([F,P])=      0.033050108583
 orbitals (Q,E):
 ---------------
 S :1...3            ( 2.00   -15.8090)  ( 2.00    -1.0329)  ( 0.00     0.7308)
 P :1...2            ( 3.00    -0.2585)  ( 0.00     0.4665)
 D :1...1            ( 0.00     1.5450)
 F :1...1            ( 0.00     4.4333)

 CYCLE    9
  SDIIS (wt  0.959): -0.0000  0.0001  0.0028  0.0084 -0.1004  0.6083  0.4808
 A-DIIS (wt  0.041):  0.0000  0.0000  0.0000  0.0000  0.0000  0.0000  1.0000
  DIIS coefficients: -0.0000  0.0001  0.0026  0.0081 -0.0962  0.5831  0.5023
 SCF Error: norm([F,P])=      0.007767814400, max([F,P])=      0.005101744698
 orbitals (Q,E):
 ---------------
 S :1...3            ( 2.00   -15.8227)  ( 2.00    -1.0379)  ( 0.00     0.7278)
 P :1...2            ( 3.00    -0.2628)  ( 0.00     0.4643)
 D :1...1            ( 0.00     1.5408)
 F :1...1            ( 0.00     4.4280)

 CYCLE   10
  SDIIS (wt  1.000): -0.0000 -0.0000  0.0002  0.0050  0.0020 -0.0826 -0.0617  0.6933  0.4439
  DIIS coefficients: -0.0000 -0.0000  0.0002  0.0050  0.0020 -0.0826 -0.0617  0.6933  0.4439
 SCF Error: norm([F,P])=      0.000206986872, max([F,P])=      0.000139823858
 orbitals (Q,E):
 ---------------
 S :1...3            ( 2.00   -15.8223)  ( 2.00    -1.0378)  ( 0.00     0.7279)
 P :1...2            ( 3.00    -0.2627)  ( 0.00     0.4643)
 D :1...1            ( 0.00     1.5409)
 F :1...1            ( 0.00     4.4282)

 CYCLE   11
  SDIIS (wt  1.000): -0.0000  0.0000  0.0000 -0.0000  0.0001 -0.0007  0.0008  0.0143 -0.1955  1.1810
  DIIS coefficients: -0.0000  0.0000  0.0000 -0.0000  0.0001 -0.0007  0.0008  0.0143 -0.1955  1.1810
 SCF Error: norm([F,P])=      0.000001535353, max([F,P])=      0.000000724395
 orbitals (Q,E):
 ---------------
 S :1...3            ( 2.00   -15.8223)  ( 2.00    -1.0378)  ( 0.00     0.7279)
 P :1...2            ( 3.00    -0.2627)  ( 0.00     0.4643)
 D :1...1            ( 0.00     1.5409)
 F :1...1            ( 0.00     4.4282)

 CYCLE   12
  SDIIS (wt  1.000):  0.0000  0.0000 -0.0000 -0.0002  0.0019 -0.0219  1.0202
  DIIS coefficients:  0.0000  0.0000 -0.0000 -0.0002  0.0019 -0.0219  1.0202
 SCF Error: norm([F,P])=      0.000000128705, max([F,P])=      0.000000092555
 orbitals (Q,E):
 ---------------
 S :1...3            ( 2.00   -15.8223)  ( 2.00    -1.0378)  ( 0.00     0.7279)
 P :1...2            ( 3.00    -0.2627)  ( 0.00     0.4643)
 D :1...1            ( 0.00     1.5409)
 F :1...1            ( 0.00     4.4282)

 CYCLE   13
  SDIIS (wt  1.000):  0.0000  0.0001  0.0035  0.9964
  DIIS coefficients:  0.0000  0.0001  0.0035  0.9964
 SCF Error: norm([F,P])=      0.000000000626, max([F,P])=      0.000000000454
 orbitals (Q,E):
 ---------------
 S :1...3            ( 2.00   -15.8223)  ( 2.00    -1.0378)  ( 0.00     0.7279)
 P :1...2            ( 3.00    -0.2627)  ( 0.00     0.4643)
 D :1...1            ( 0.00     1.5409)
 F :1...1            ( 0.00     4.4282)

 SCF CONVERGED

 CYCLE   14
1
 ***************************************************************************************************



                                                *******************
                                                *  R E S U L T S  *
                                                *******************
  
  
 Hartree-Fock exchange energy:   -5.93261526331530     
 *** Setting up for NEW gradients in Focky
 *** Using FIT density in Focky

 Orbital Energies, per Irrep and Spin:
 ======================================
                        Occup              E (au)              E (eV)       Diff (eV) with prev. cycle
                        -----      --------------------        ------       --------------------------
 S
               1        2.000     -0.15822348299254E+02      -430.548               2.41E-10
               2        2.000     -0.10377645165748E+01       -28.239               1.20E-10
               3        0.000      0.72785702214773E+00        19.806
               4        0.000      0.74824799408622E+01       203.609
               5        0.000      0.66107968131581E+02      1798.889
 P
               1        3.000     -0.26274496184556E+00        -7.150               1.47E-10
               2        0.000      0.46433005690455E+00        12.635
               3        0.000      0.38141557764270E+01       103.788
 D
               1        0.000      0.15409309529846E+01        41.931
 F
               1        0.000      0.44281698859510E+01       120.497


 Partially Occupied:
               1 P                -0.26274496184556E+00
  
 HOMO :        2 S                -0.10377645165748E+01
 LUMO :        2 P                 0.46433005690455E+00
  


 Orbital Energies, all Irreps
 ========================================

 Irrep        no.  (spin)   Occup              E (au)                E (eV)
 ---------------------------------------------------------------------------
 S             1             2.00       -0.15822348299254E+02      -430.5480
 S             2             2.00       -0.10377645165748E+01       -28.2390
 P             1             3.00       -0.26274496184556E+00        -7.1497
 P             2             0.00        0.46433005690455E+00        12.6351
 S             3             0.00        0.72785702214773E+00        19.8060
 D             1             0.00        0.15409309529846E+01        41.9309
 P             3             0.00        0.38141557764270E+01       103.7885
 F             1             0.00        0.44281698859510E+01       120.4966
 S             4             0.00        0.74824799408622E+01       203.6086
 S             5             0.00        0.66107968131581E+02      1798.8893


 All Electron Calculation, thus no Orbital Energies of the Core Orbitals are calculated



 =======================================
 M U L L I K E N   P O P U L A T I O N S
 =======================================
  
 The survey below gives for each atom:
 a) the total charge (Z minus electrons)
 b) the net spin polarization (nr of electrons spin-A minus spin-B)
 c) for each spin the atomic electron valence density (integrated) per L-value.

 Atom              Charge    Spin density          S         P         D         F
 ----              ------    ------------       ------    ------    ------    ------
 1 N              -0.0000                       4.0000    3.0000    0.0000    0.0000

 Populations of individual BAS functions
 ----------------------------------------
 1 N            0.4693  1.5615 -0.1047  1.2429  0.8310  0.1160  0.1160  0.1160  0.5017  0.5017
                0.5017  0.3823  0.3823  0.3823  0.0000  0.0000  0.0000  0.0000  0.0000  0.0000
                0.0000  0.0000  0.0000  0.0000  0.0000  0.0000  0.0000  0.0000  0.0000  0.0000

 Gross Charges per Atom (Z minus electrons)
 ==========================================
            -0.0000
 Net Total: -0.00000000



 =======================================================================
 Electrostatic potential at the Nuclei due to electrons and other nuclei
 =======================================================================
  
         Atom                  Potential
         ----                  ---------
     1)   N                  18.14891649
 
 
 ========================
 No memory problems found
 ========================
 
 Maximum number of active allocate calls:         454
 
 *******************************************************************************

                             A D F   E X I T
 NORMAL TERMINATION



 =================
 Timing Statistics
 =================
  
 Total Used :                     CPU=        0.72      System=        0.06     Elapsed=        1.08

 Calls  Section                     ( Mean, Percentage )
 ---------------------------------------------------------------------------------------------------
     3  ><      ................      0.00    0.40             0.00    0.01             0.00    0.27
     1  INIT    ................      0.03    4.62             0.00    4.35             0.32   29.79
     1  GEOMET  ................      0.02    3.33             0.03   45.26             0.05    4.97
     1  INPUTA  ................      0.00    0.50             0.00    0.00             0.00    0.33
     1  MAINSY  ................      0.01    1.25             0.00    1.39             0.01    0.93
     1  SYMFIT  ................      0.00    0.13             0.00    0.02             0.00    0.09
     1  CORORT  ................      0.00    0.10             0.00    0.00             0.00    0.07
     1  SYMORB  ................      0.00    0.10             0.00    0.01             0.00    0.07
     1  FITINT  ................      0.01    0.84             0.00    2.61             0.01    0.73
     1  CLSMAT  ................      0.00    0.18             0.00    0.36             0.00    0.15
     1  ORTHON  ................      0.01    0.78             0.00    0.10             0.01    0.54
     1  GENPT   ................      0.01    2.06             0.00    1.48             0.02    1.48
     1  PTBAS   ................      0.00    0.60             0.00    0.00             0.00    0.40
    14  FOCKY   ................      0.04   73.54             0.00   30.79             0.04   51.57
    14  FOCKTR  ................      0.00    1.68             0.00    0.97             0.00    1.19
    14  SDIIS   ................      0.00    4.26             0.00    4.98             0.00    3.17
     1  COREPS  ................      0.02    2.55             0.00    1.55             0.02    1.81
     1  POPAN   ................      0.01    1.15             0.00    1.54             0.01    0.87
     1  DEBYE   ................      0.00    0.22             0.00    0.00             0.00    0.15
     1  EXIT PROCEDURE .........      0.01    1.71             0.00    4.59             0.02    1.43


 Currently Open Files (EXIT00)
 ====================

 Unit    Access Format  Status   Type       Ident (file)
 -------------------------------------------------------
   3      SEQ    FORM   TRANSP  NORMAL      LOGFILE
                                          ( logfile )


 Buffered I/O statistics
 =======================
 Memory available:                     67108864
 Number of records fitting in memory:     16131
 Input :   0.1% of                        41032  *4k bytes
 Output:  10.9% of                         1858  *4k bytes
 Records from serial files evicted:           0
                    others evicted:           0
 Hash table lookups:      81971 with          0 conflicts (  0.00%)

 ***************************************************************************************************
 (LOGFILE)
 <Mar23-2019> <10:00:02>  ADF 2018  RunTime: Mar23-2019 10:00:02  Nodes: 1  Procs: 1
 <Mar23-2019> <10:00:02>  Hydrogen (TZ2P)
 <Mar23-2019> <10:00:02>  RunType   : CREATE
 <Mar23-2019> <10:00:02>  Net Charge: 0 (Nuclei minus Electrons)
 <Mar23-2019> <10:00:02>  Symmetry  : ATOM
  Coordinates
    Atom         X           Y           Z   (Angstrom)
    1.H         0.000000    0.000000    0.000000
 <Mar23-2019> <10:00:02>  >>>> CORORT
 <Mar23-2019> <10:00:02>  >>>> FITINT
 <Mar23-2019> <10:00:02>  >>>> CLSMAT
 <Mar23-2019> <10:00:02>  >>>> ORTHON
 <Mar23-2019> <10:00:02>  >>>> GENPT
 <Mar23-2019> <10:00:02>  Block Length=  64
 <Mar23-2019> <10:00:02>  >>>> PTBAS
 <Mar23-2019> <10:00:02>  >>>> CYCLE
 <Mar23-2019> <10:00:02>  CalcFitR12Fit
 <Mar23-2019> <10:00:02>  CalcFitCoeff
 <Mar23-2019> <10:00:02>              |Error|         MaxErr       Wt(A-DIIS)
 <Mar23-2019> <10:00:02>      1      0.00000000      0.00000000
 <Mar23-2019> <10:00:02>      2      0.09355017      0.09149985
 <Mar23-2019> <10:00:02>      3      0.00792455      0.00618910    100.0
 <Mar23-2019> <10:00:02>      4      0.00117224      0.00108876      0.1
 <Mar23-2019> <10:00:02>      5      0.00005184      0.00004766      0.0
 <Mar23-2019> <10:00:02>      6      0.00000178      0.00000167      0.0
 <Mar23-2019> <10:00:02>      7      0.00000022      0.00000019      0.0
 <Mar23-2019> <10:00:02>      8      0.00000002      0.00000002      0.0
 <Mar23-2019> <10:00:02>      9      0.00000000      0.00000000      0.0
 <Mar23-2019> <10:00:02>  SCF converged
 <Mar23-2019> <10:00:02>     10      0.00000000      0.00000000      0.0
 <Mar23-2019> <10:00:02>  >>>> POPAN
 <Mar23-2019> <10:00:02>  >>>> DEBYE
 <Mar23-2019> <10:00:02>  NORMAL TERMINATION
 <Mar23-2019> <10:00:02>  END
 <Mar23-2019> <10:00:03>  ADF 2018  RunTime: Mar23-2019 10:00:03  Nodes: 1  Procs: 1
 <Mar23-2019> <10:00:03>  Nitrogen (TZ2P)
 <Mar23-2019> <10:00:03>  RunType   : CREATE
 <Mar23-2019> <10:00:03>  Net Charge: 0 (Nuclei minus Electrons)
 <Mar23-2019> <10:00:03>  Symmetry  : ATOM
  Coordinates
    Atom         X           Y           Z   (Angstrom)
    1.N         0.000000    0.000000    0.000000
 <Mar23-2019> <10:00:03>  >>>> CORORT
 <Mar23-2019> <10:00:03>  >>>> FITINT
 <Mar23-2019> <10:00:03>  >>>> CLSMAT
 <Mar23-2019> <10:00:03>  >>>> ORTHON
 <Mar23-2019> <10:00:03>  >>>> GENPT
 <Mar23-2019> <10:00:03>  Block Length=  72
 <Mar23-2019> <10:00:03>  >>>> PTBAS
 <Mar23-2019> <10:00:03>  >>>> CYCLE
 <Mar23-2019> <10:00:03>  CalcFitR12Fit
 <Mar23-2019> <10:00:03>  CalcFitCoeff
 <Mar23-2019> <10:00:03>              |Error|         MaxErr       Wt(A-DIIS)
 <Mar23-2019> <10:00:03>      1      0.00000000      0.00000000
 <Mar23-2019> <10:00:03>      2      6.56882459      4.17270294    100.0
 <Mar23-2019> <10:00:03>      3      1.72482095      1.33485805    100.0
 <Mar23-2019> <10:00:03>      4      1.05528379      0.63183308    100.0
 <Mar23-2019> <10:00:03>      5      0.48135174      0.33112700    100.0
 <Mar23-2019> <10:00:03>      6      0.25230965      0.16412252    100.0
 <Mar23-2019> <10:00:03>      7      0.12107921      0.08076168     80.6
 <Mar23-2019> <10:00:03>      8      0.04984775      0.03305011     32.4
 <Mar23-2019> <10:00:03>      9      0.00776781      0.00510174      4.1
 <Mar23-2019> <10:00:03>     10      0.00020699      0.00013982      0.0
 <Mar23-2019> <10:00:03>     11      0.00000154      0.00000072      0.0
 <Mar23-2019> <10:00:03>     12      0.00000013      0.00000009      0.0
 <Mar23-2019> <10:00:03>     13      0.00000000      0.00000000      0.0
 <Mar23-2019> <10:00:03>  SCF converged
 <Mar23-2019> <10:00:04>     14      0.00000000      0.00000000      0.0
 <Mar23-2019> <10:00:04>  >>>> POPAN
 <Mar23-2019> <10:00:04>  >>>> DEBYE
 <Mar23-2019> <10:00:04>  NORMAL TERMINATION
 <Mar23-2019> <10:00:04>  END
 
Create C   file=TZ2P-C
XC
  HartreeFock
End
  HartreeFock

 *******************************************************************************
 *                                                                             *
 *  -------------------------------------                                      *
 *   Amsterdam Density Functional  (ADF)         2018                          *
 *  -------------------------------------                                      *
 *                                               r70630 2018-11-24             *
 *                                                                             *
 *                                                                             *
 *                              =================                              *
 *                              |               |                              *
 *                              |     A D F     |                              *
 *                              |               |                              *
 *                              =================                              *
 *                                                                             *
 *                                                                             *
 *   Online information and documentation:  https://www.scm.com/support/       *
 *   E-mail:  support@scm.com   info@scm.com                                   *
 *                                                                             *
 *   Scientific publications using ADF results must be properly referenced     *
 *   See the User Manuals (or the web site) for recommended citations          *
 *   The terms and conditions of the End User License Agreement apply to       *
 *   the use of ADF, https://www.scm.com/license-terms/                        *
 *                                                                             *
 **********************  x86_64_linux_intel / intelmpi  ************************
 
 Licensed to: Mr. Vladimir Konjkov / Florida Institute of Technology / Melbourne / Florida / USA
 SCM User ID: u21173
  
 ADF 2018  RunTime: Mar23-2019 10:00:04  Nodes: 1  Procs: 1

 Temporary files are created in /tmp/kid_0.828033720

 Carbon (TZ2P)



 ===========================
 A T T A C H E D   F I L E S
 ===========================
  
 CREATE - Data File:    TZ2P-C
                        Carbon (TZ2P)



 ===============================
 M O D E L   P A R A M E T E R S
 ===============================
  
 DENSITY FUNCTIONAL POTENTIAL (scf)
    Hybrid:                            HARTREEFOCK                             == Not Default ==

 SPIN  (restricted / unrestr.)
    Molecule:                          Restricted                               

 OTHER ASPECTS
    Relativistic Corrections:          ---                                      

    Nuclear Charge Density Model:      Point Charge Nuclei                      
    Core Treatment:                    Frozen Orbital(s)                        

    Hyperfine or Zeeman Interaction:   ---                                      



 =====================================
 S Y M M E T R Y ,   E L E C T R O N S
 =====================================
  
 Symmetry: ATOM

 Irreducible Representations, including subspecies
 -------------------------------------------------
 S
 P:x  P:y  P:z
 D:z2  D:x2-y2  D:xy  D:xz  D:yz
 F:z3  F:z  F:xyz  F:z2x  F:z2y  F:x  F:y


 Configuration of Valence Electrons
 ==================================

          Occupation Numbers
          -------------------------------------------------
 S        2*2
 P        2
 D        0
 F        0
          -------------------------------------------------

 Total:   6

 Net Charge: 0 (Nuclei minus Electrons)

 Preset values for MO occupations will be applied through SCF cycle no. 1000000
 Thereafter, the program will assign electrons to MOs that are spatially
 similar to the occupied MOs in a "reference" cycle ("KeepOrbitals").
 The reference cycle is always the PREVIOUS cycle: it will evolve with
 the SCF procedure.



 ================================
 (Slater-type)  F U N C T I O N S  ***  (Basis and Fit)  ***
 ================================
  

 Atom Type    1  (C)
 ==============

 Valence Basis Sets:  10
 -----------------------
   1 S    7.680000
   1 S    5.000000
   2 S    1.280000
   2 S    2.100000
   2 S    4.600000
   2 P    0.820000
   2 P    1.480000
   2 P    2.940000
   3 D    2.200000
   4 F    3.300000

 Charge Fitting Sets (for the computation of the Coulomb Potential):  22
 -----------------------------------------------------------------------
   1 S   15.360000
   2 S   17.530000
   2 S   12.070000
   2 S    8.310000
   2 S    5.730000
   3 S    5.780000
   3 S    4.220000
   3 S    3.080000
   3 S    2.250000
   3 S    1.640000
   2 P    9.880000
   2 P    5.800000
   3 P    5.050000
   3 P    3.230000
   3 P    2.060000
   3 D    7.200000
   3 D    4.400000
   3 D    2.690000
   3 D    1.640000
   4 F    5.400000
   4 F    3.550000
   5 G    4.500000


 BAS: List of all Elementary Cartesian Basis Functions
 =====================================================

 The numbering in the list below (to the right of the function characteristics) is referred
 to in print-outs of MO eigenvectors and Mulliken populations in the BAS representation
 (as contrasted to the SFO representation).

 Notes:
 1. The functions are characterized by a polynomial prefactor (powers of x,y,z and r) and
    an exponential decay factor alpha.
 2. Since the basis sets are specific for an atom TYPE, the individual functions occur on
    all atoms of that type.
 3. The word 'Core' in the left margin signals that it is a Core Function (CF) : not a
    degree of freedom in the valence set, but only used to ensure orthogonalization of
    the other valence basis functions on the frozen Core Orbitals.


 (power of) X  Y  Z  R     Alpha  on Atom
            ==========     =====     ==========

 C                                    1
                                  ---------------------------------------------------------------------------
            0  0  0  0     7.680      1
            0  0  0  0     5.000      2
            0  0  0  1     1.280      3
            0  0  0  1     2.100      4
            0  0  0  1     4.600      5
            1  0  0  0     0.820      6
            0  1  0  0     0.820      7
            0  0  1  0     0.820      8
            1  0  0  0     1.480      9
            0  1  0  0     1.480     10
            0  0  1  0     1.480     11
            1  0  0  0     2.940     12
            0  1  0  0     2.940     13
            0  0  1  0     2.940     14
            2  0  0  0     2.200     15
            1  1  0  0     2.200     16
            1  0  1  0     2.200     17
            0  2  0  0     2.200     18
            0  1  1  0     2.200     19
            0  0  2  0     2.200     20
            3  0  0  0     3.300     21
            2  1  0  0     3.300     22
            2  0  1  0     3.300     23
            1  2  0  0     3.300     24
            1  1  1  0     3.300     25
            1  0  2  0     3.300     26
            0  3  0  0     3.300     27
            0  2  1  0     3.300     28
            0  1  2  0     3.300     29
            0  0  3  0     3.300     30

 Total number of charge fitting functions (nprimf)        84
 Total number of Cartesian basis functions (naos)         30
 Total number of Cartesian core functions  (ncos)          0



 BAS: List of all Elementary Cartesian Basis Functions
 =====================================================

 The numbering in the list below (to the right of the function characteristics) is referred
 to in print-outs of MO eigenvectors and Mulliken populations in the BAS representation
 (as contrasted to the SFO representation).

 Notes:
 1. The functions are characterized by a polynomial prefactor (powers of x,y,z and r) and
    an exponential decay factor alpha.
 2. Since the basis sets are specific for an atom TYPE, the individual functions occur on
    all atoms of that type.
 3. The word 'Core' in the left margin signals that it is a Core Function (CF) : not a
    degree of freedom in the valence set, but only used to ensure orthogonalization of
    the other valence basis functions on the frozen Core Orbitals.


 (power of) X  Y  Z  R     Alpha  on Atom
            ==========     =====     ==========

 C                                    1
                                  ---------------------------------------------------------------------------
            0  0  0  0     7.680      1
            0  0  0  0     5.000      2
            0  0  0  1     1.280      3
            0  0  0  1     2.100      4
            0  0  0  1     4.600      5
            1  0  0  0     0.820      6
            0  1  0  0     0.820      7
            0  0  1  0     0.820      8
            1  0  0  0     1.480      9
            0  1  0  0     1.480     10
            0  0  1  0     1.480     11
            1  0  0  0     2.940     12
            0  1  0  0     2.940     13
            0  0  1  0     2.940     14
            2  0  0  0     2.200     15
            1  1  0  0     2.200     16
            1  0  1  0     2.200     17
            0  2  0  0     2.200     18
            0  1  1  0     2.200     19
            0  0  2  0     2.200     20
            3  0  0  0     3.300     21
            2  1  0  0     3.300     22
            2  0  1  0     3.300     23
            1  2  0  0     3.300     24
            1  1  1  0     3.300     25
            1  0  2  0     3.300     26
            0  3  0  0     3.300     27
            0  2  1  0     3.300     28
            0  1  2  0     3.300     29
            0  0  3  0     3.300     30
1
 ***************************************************************************************************



                                              ***********************
                                              *  T E C H N I C A L  *
                                              ***********************
  



 =============================================================
 P A R A L L E L I Z A T I O N  and  V E C T O R I Z A T I O N
 =============================================================
  
 Nr of parallel processes:                                1
 Maximum vector length in NumInt loops:                 128

 IO buffersize (Mb):                                     64.000000



 =====================
 S C F   U P D A T E S
 =====================
  
 Max. nr. of cycles:                               300
 Convergence criterion:                              0.0000000100
   secondary criterion:                              0.0000000100

 Mix parameter (when DIIS does not apply):           0.2000000000
 Special mix parameter for the first cycle:          1.0000000000
 Mixed ADIIS+DIIS will be used
    Max number of expansion vectors:                10
    Pure ADIIS when Max([F,P]) is above              0.1000000000
    Pure DIIS when Max([F,P]) is below               0.0010000000
 Automatic ElectronSmearing (in case of problematic SCF convergence) disabled



 =================
 P R E C I S I O N  ***  (General: NumInt, NeglectFunctionTails, ...)  ***
 =================
  

 NumInt:           Target precision:                12.0000000000
 -------           Initial precision:               10.0000000000
                   Min. precision (optimization):   10.0000000000

 Neglect Functions:          Basis functions:        0.1000000000E-13
 ------------------          Fit functions:          0.1000000000E-13



 ===========================
 L I N E A R   S C A L I N G
 ===========================
  

 Cut-off radii density fit:                        0.1000000000E-97
 Overlap cut-off criterion AO matrix elements:     0.1000000000E-97
 Cut-offs for Coulomb potential and fitted density:0.1000000000E-97
 Cut-off criterion for Coulomb multipole terms:    0.1000000000E-97
 Progressive Convergence parameter:                 0.000000000    
1
 ***************************************************************************************************



                                            ***************************
                                            *  C O M P U T A T I O N  *
                                            ***************************
  

 Number of elements of the density matrix on this node (used, total):       465       465



 ===========================================
 Numerical Integration : Fuzzy Cells (Becke)
 ===========================================
  
 Becke grid quality: VERYGOOD       
  
 Lebedev angular grid order:             min:  13 max:  41
 Nr. of radial points:                   min:  72 max:  72

 Total nr. of points:         72
 Nr. of blocks:                1
 Block length:                72
 Nr. of dummy points:          0


 Test of Precision of the Numerical Integration Grid
 ===================================================

 Integral of the Total Core Density:                   0.00000000000000



 ========================
 Density Fitting (zlmFit)
 ========================
  
 ZlmFit Fit Quality: VERYGOOD       
  
 Max L-expansion:                        min:   0 max:   0
 Nr. of radial interpolation points:     min: 160 max: 160



 ======================
 RI Hartree-Fock Scheme
 ======================
  
 Fit Set Quality     : NORMAL
 Integration Quality : NORMAL
 Threshold Quality   : NORMAL
 Response Quality    : DEFAULT
 Is Range Separated  :  F
 
 RIHartreeFock Dependency: number of modified vectors:           0



 =====
 S C F  ***  ScaSCF  ***
 =====
  

 CYCLE    1
 SCF Error: norm([F,P])=      0.000000000000, max([F,P])=      0.000000000000
 orbitals (Q,E):
 ---------------
 S :1...5            ( 2.00   -17.9995)  ( 2.00    -4.4761)  ( 0.00    -1.9482)  ( 0.00     0.6812)
                     ( 0.00    42.8100)
 P :1...3            ( 2.00    -4.4994)  ( 0.00    -1.9807)  ( 0.00    -1.0849)
 D :1...1            ( 0.00    -1.9800)
 F :1...1            ( 0.00     0.4950)

 CYCLE    2
  SDIIS (wt  0.000):  1.0000 -0.0000
 A-DIIS (wt  1.000):  0.0000  1.0000
  DIIS coefficients:  0.0000  1.0000
 SCF Error: norm([F,P])=      4.546521786637, max([F,P])=      3.293241911978
 orbitals (Q,E):
 ---------------
 S :1...3            ( 2.00    -9.1991)  ( 2.00    -0.1531)  ( 0.00     0.7777)
 P :1...2            ( 2.00     0.1804)  ( 0.00     0.7049)
 D :1...1            ( 0.00     2.0876)
 F :1...1            ( 0.00     5.0841)

 CYCLE    3
  SDIIS (wt  0.000):  0.1077  0.8923
 A-DIIS (wt  1.000):  0.0000  1.0000
  DIIS coefficients:  0.0000  1.0000
 SCF Error: norm([F,P])=      0.894807282639, max([F,P])=      0.710112342291
 orbitals (Q,E):
 ---------------
 S :1...3            ( 2.00   -12.3706)  ( 2.00    -1.1517)  ( 0.00     0.2813)
 P :1...2            ( 2.00    -0.4387)  ( 0.00     0.1225)
 D :1...1            ( 0.00     1.1110)
 F :1...1            ( 0.00     3.8880)

 CYCLE    4
  SDIIS (wt  0.000): -0.0264  0.2553  0.7711
 A-DIIS (wt  1.000):  0.0000  0.0000  1.0000
  DIIS coefficients:  0.0000  0.0000  1.0000
 SCF Error: norm([F,P])=      0.438000208726, max([F,P])=      0.301628302039
 orbitals (Q,E):
 ---------------
 S :1...3            ( 2.00   -11.0662)  ( 2.00    -0.6348)  ( 0.00     0.6343)
 P :1...2            ( 2.00    -0.0138)  ( 0.00     0.3798)
 D :1...1            ( 0.00     1.6827)
 F :1...1            ( 0.00     4.5867)

 CYCLE    5
  SDIIS (wt  0.000): -0.0032 -0.0743  0.2574  0.8201
 A-DIIS (wt  1.000):  0.0000  0.0000  0.0000  1.0000
  DIIS coefficients:  0.0000  0.0000  0.0000  1.0000
 SCF Error: norm([F,P])=      0.193647477060, max([F,P])=      0.146981793382
 orbitals (Q,E):
 ---------------
 S :1...3            ( 2.00   -11.6843)  ( 2.00    -0.8631)  ( 0.00     0.4911)
 P :1...2            ( 2.00    -0.1937)  ( 0.00     0.2760)
 D :1...1            ( 0.00     1.4374)
 F :1...1            ( 0.00     4.2849)

 CYCLE    6
  SDIIS (wt  0.313):  0.0005 -0.0018 -0.0946  0.2302  0.8656
 A-DIIS (wt  0.687):  0.0000  0.0000  0.0000  0.0000  1.0000
  DIIS coefficients:  0.0002 -0.0006 -0.0296  0.0720  0.9580
 SCF Error: norm([F,P])=      0.094572405835, max([F,P])=      0.069039416137
 orbitals (Q,E):
 ---------------
 S :1...3            ( 2.00   -11.4202)  ( 2.00    -0.7602)  ( 0.00     0.5589)
 P :1...2            ( 2.00    -0.1111)  ( 0.00     0.3241)
 D :1...1            ( 0.00     1.5494)
 F :1...1            ( 0.00     4.4223)

 CYCLE    7
  SDIIS (wt  0.795):  0.0000  0.0012  0.0077 -0.0946  0.0862  0.9996
 A-DIIS (wt  0.205):  0.0000  0.0000  0.0000  0.0000  0.0000  1.0000
  DIIS coefficients:  0.0000  0.0009  0.0061 -0.0752  0.0686  0.9996
 SCF Error: norm([F,P])=      0.028789163460, max([F,P])=      0.021294327752
 orbitals (Q,E):
 ---------------
 S :1...3            ( 2.00   -11.4898)  ( 2.00    -0.7861)  ( 0.00     0.5423)
 P :1...2            ( 2.00    -0.1320)  ( 0.00     0.3122)
 D :1...1            ( 0.00     1.5212)
 F :1...1            ( 0.00     4.3876)

 CYCLE    8
  SDIIS (wt  0.988): -0.0000 -0.0001  0.0013  0.0131 -0.0634 -0.1533  1.2023
 A-DIIS (wt  0.012):  0.0000  0.0000  0.0000  0.0000  0.0000  0.0000  1.0000
  DIIS coefficients: -0.0000 -0.0001  0.0013  0.0129 -0.0626 -0.1515  1.1999
 SCF Error: norm([F,P])=      0.002911340813, max([F,P])=      0.002179078843
 orbitals (Q,E):
 ---------------
 S :1...3            ( 2.00   -11.4837)  ( 2.00    -0.7837)  ( 0.00     0.5439)
 P :1...2            ( 2.00    -0.1301)  ( 0.00     0.3133)
 D :1...1            ( 0.00     1.5237)
 F :1...1            ( 0.00     4.3907)

 CYCLE    9
  SDIIS (wt  1.000): -0.0000  0.0000 -0.0000  0.0001  0.0001 -0.0020 -0.0136  1.0153
  DIIS coefficients: -0.0000  0.0000 -0.0000  0.0001  0.0001 -0.0020 -0.0136  1.0153
 SCF Error: norm([F,P])=      0.000003327795, max([F,P])=      0.000001625946
 orbitals (Q,E):
 ---------------
 S :1...3            ( 2.00   -11.4837)  ( 2.00    -0.7837)  ( 0.00     0.5439)
 P :1...2            ( 2.00    -0.1301)  ( 0.00     0.3133)
 D :1...1            ( 0.00     1.5237)
 F :1...1            ( 0.00     4.3907)

 CYCLE   10
  SDIIS (wt  1.000): -0.0000  0.0000  0.0000 -0.0001 -0.0002  0.0023 -0.0630  1.0610
  DIIS coefficients: -0.0000  0.0000  0.0000 -0.0001 -0.0002  0.0023 -0.0630  1.0610
 SCF Error: norm([F,P])=      0.000000420865, max([F,P])=      0.000000320255
 orbitals (Q,E):
 ---------------
 S :1...3            ( 2.00   -11.4837)  ( 2.00    -0.7837)  ( 0.00     0.5439)
 P :1...2            ( 2.00    -0.1301)  ( 0.00     0.3133)
 D :1...1            ( 0.00     1.5237)
 F :1...1            ( 0.00     4.3907)

 CYCLE   11
  SDIIS (wt  1.000):  0.0000 -0.0000 -0.0000  0.0011 -0.0309  1.0298
  DIIS coefficients:  0.0000 -0.0000 -0.0000  0.0011 -0.0309  1.0298
 SCF Error: norm([F,P])=      0.000000002693, max([F,P])=      0.000000001523
 orbitals (Q,E):
 ---------------
 S :1...3            ( 2.00   -11.4837)  ( 2.00    -0.7837)  ( 0.00     0.5439)
 P :1...2            ( 2.00    -0.1301)  ( 0.00     0.3133)
 D :1...1            ( 0.00     1.5237)
 F :1...1            ( 0.00     4.3907)

 SCF CONVERGED

 CYCLE   12
1
 ***************************************************************************************************



                                                *******************
                                                *  R E S U L T S  *
                                                *******************
  
  
 Hartree-Fock exchange energy:   -4.61920458342788     
 *** Setting up for NEW gradients in Focky
 *** Using FIT density in Focky

 Orbital Energies, per Irrep and Spin:
 ======================================
                        Occup              E (au)              E (eV)       Diff (eV) with prev. cycle
                        -----      --------------------        ------       --------------------------
 S
               1        2.000     -0.11483709384131E+02      -312.488              -1.47E-08
               2        2.000     -0.78374476885318E+00       -21.327              -8.59E-09
               3        0.000      0.54387335605272E+00        14.800
               4        0.000      0.59228144727905E+01       161.168
               5        0.000      0.52039784793863E+02      1416.075
 P
               1        2.000     -0.13012494038988E+00        -3.541              -6.08E-09
               2        0.000      0.31327992781221E+00         8.525
               3        0.000      0.24328774062075E+01        66.202
 D
               1        0.000      0.15237359665414E+01        41.463
 F
               1        0.000      0.43907342141849E+01       119.478


 Partially Occupied:
               1 P                -0.13012494038988E+00
  
 HOMO :        2 S                -0.78374476885318E+00
 LUMO :        2 P                 0.31327992781221E+00
  


 Orbital Energies, all Irreps
 ========================================

 Irrep        no.  (spin)   Occup              E (au)                E (eV)
 ---------------------------------------------------------------------------
 S             1             2.00       -0.11483709384131E+02      -312.4876
 S             2             2.00       -0.78374476885318E+00       -21.3268
 P             1             2.00       -0.13012494038988E+00        -3.5409
 P             2             0.00        0.31327992781221E+00         8.5248
 S             3             0.00        0.54387335605272E+00        14.7995
 D             1             0.00        0.15237359665414E+01        41.4630
 P             3             0.00        0.24328774062075E+01        66.2020
 F             1             0.00        0.43907342141849E+01       119.4780
 S             4             0.00        0.59228144727905E+01       161.1680
 S             5             0.00        0.52039784793863E+02      1416.0746


 All Electron Calculation, thus no Orbital Energies of the Core Orbitals are calculated



 =======================================
 M U L L I K E N   P O P U L A T I O N S
 =======================================
  
 The survey below gives for each atom:
 a) the total charge (Z minus electrons)
 b) the net spin polarization (nr of electrons spin-A minus spin-B)
 c) for each spin the atomic electron valence density (integrated) per L-value.

 Atom              Charge    Spin density          S         P         D         F
 ----              ------    ------------       ------    ------    ------    ------
 1 C              -0.0000                       4.0000    2.0000    0.0000    0.0000

 Populations of individual BAS functions
 ----------------------------------------
 1 C            0.4214  1.6316  0.8530  1.2178 -0.1238  0.2952  0.2952  0.2952  0.2923  0.2923
                0.2923  0.0791  0.0791  0.0791  0.0000  0.0000  0.0000  0.0000  0.0000  0.0000
                0.0000  0.0000  0.0000  0.0000  0.0000  0.0000  0.0000  0.0000  0.0000  0.0000

 Gross Charges per Atom (Z minus electrons)
 ==========================================
            -0.0000
 Net Total: -0.00000000



 =======================================================================
 Electrostatic potential at the Nuclei due to electrons and other nuclei
 =======================================================================
  
         Atom                  Potential
         ----                  ---------
     1)   C                  14.53957682
 
 
 ========================
 No memory problems found
 ========================
 
 Maximum number of active allocate calls:         454
 
 *******************************************************************************

                             A D F   E X I T
 NORMAL TERMINATION



 =================
 Timing Statistics
 =================
  
 Total Used :                     CPU=        0.65      System=        0.05     Elapsed=        1.01

 Calls  Section                     ( Mean, Percentage )
 ---------------------------------------------------------------------------------------------------
     3  ><      ................      0.00    0.46             0.00    0.01             0.00    0.30
     1  INIT    ................      0.03    4.80             0.00    7.91             0.34   33.53
     1  GEOMET  ................      0.03    3.89             0.03   49.03             0.05    5.14
     1  INPUTA  ................      0.00    0.55             0.00    1.52             0.00    0.44
     1  MAINSY  ................      0.01    1.54             0.00    0.07             0.01    1.00
     1  SYMFIT  ................      0.00    0.02             0.00    1.70             0.00    0.10
[...]
 DELTA         3             0.00        0.29703309040613E+01        80.8268
 SIGMA        16             0.00        0.35789690700393E+01        97.3887
 SIGMA        17             0.00        0.38615324884963E+01       105.0776
 PI            9             0.00        0.40819101887142E+01       111.0744
 PHI           1             0.00        0.42066448381703E+01       114.4686
 DELTA         4             0.00        0.43628219158989E+01       118.7184
 PI           10             0.00        0.44185615606815E+01       120.2352
 PHI           2             0.00        0.48548263613647E+01       132.1065
 SIGMA        18             0.00        0.54063028984770E+01       147.1130
 PI           11             0.00        0.58704876649808E+01       159.7441
 SIGMA        19             0.00        0.59549334975027E+01       162.0420
 DELTA         5             0.00        0.61580635590899E+01       167.5694
 SIGMA        20             0.00        0.70247207213279E+01       191.1524
 SIGMA        21             0.00        0.77055510527050E+01       209.6787
 PI           12             0.00        0.82337112234966E+01       224.0507
 SIGMA        22             0.00        0.86881345122619E+01       236.4162
 SIGMA        23             0.00        0.12293440203530E+02       334.5215
 SIGMA        24             0.00        0.56035290127082E+02      1524.7978
 SIGMA        25             0.00        0.71882819971124E+02      1956.0311


 All Electron Calculation, thus no Orbital Energies of the Core Orbitals are calculated



 =======================
 T O T A L   E N E R G Y  ***  (contributions)  ***
 =======================
  

*** Note ***

The requirements to the integration accuracy are somewhat higher than for bond energies.
One can expect an accuracy of roughly (accint-2) decimal places, where accint is the
general integration accuracy parameter.
The Coulomb energy is the sum of the Hartree energy (electron-electron Coulomb interaction)
and the nuclear-electron attraction energy. It includes the correction for the first-order
fit error in the Hartree energy.
The potential energy is the sum of the nuclear repulsion energy, the Coulomb energy,
and the exchange-correlation energy.

Kinetic energy           =           92.698731678804

Nuclear repulsion energy =           23.861936164686
Coulomb energy           =         -197.433947534233
XC energy                =          -12.037744158823
Total potential energy   =         -185.609755528370

----------------------------------------------------
Total energy             =          -92.911023849566
Virial theorem           =            2.002290130263
----------------------------------------------------

 Gross Charges per Atom (Z minus electrons)
 ==========================================
            -0.0329    0.3488   -0.3159
 Net Total:  0.00000000



 =================================================================
 M U L T I P O L E   D E R I V E D   C H A R G E   A N A L Y S I S
 =================================================================

 This charge analysis uses the atomic multipoles (obtained from the fitted density) up to some level X,
 and reconstructs these multipoles exactly (up to level X) by distributing charges over all atoms.
 This is achieved by using Lagrange multipliers and a weight function to keep the multipoles local.

 Dummy atoms can be included (by setting INCDUM in MDC-block to 1) to obtain a fractional charge.
 This is generally useful and necessary only for small symmetrical molecules, when there are not
 enough degrees of freedom to reconstruct the multipoles.

 Since the atomic multipoles are reconstructed up to level X,
 the molecular multipoles are represented also up to level X.
 The recommended level is to reconstruct up to quadrupole : -> MDC-q charges.

 See: M. Swart, P.Th. van Duijnen, J.G. Snijders, J.Comput.Chem., (2001), p. 79-88.

 ------------------------------------------------------------- 
 Atomic electronic multipole moments from SCF equations (a.u.)
 ------------------------------------------------------------- 

   atom        charge        dip-x     dip-y     dip-z      quad-xx   quad-xy   quad-xz   quad-yy   quad-yz   quad-zz
 --------------------------------------------------------------------------------------------------------------------
    1 H      0.051412    -0.000000 -0.000000 -0.085110    -0.120912  0.000000 -0.000000 -0.120912 -0.000000  0.241824
    2 C      0.179930     0.000000 -0.000000 -0.203901    -0.445613  0.000000 -0.000000 -0.445613 -0.000000  0.891226
    3 N     -0.231341    -0.000000  0.000000 -0.410038    -0.265662  0.000000 -0.000000 -0.265662 -0.000000  0.531324

 --------------------------------------- 
 Multipole derived atomic charges (a.u.)
 --------------------------------------- 

 The MDC-m charges are just the Monopole terms in the multipole expansion, while for the MDC-d charges
 also the Dipoles are reconstructed. The usually preferred charges are the MDC-q charges.
 These reconstruct the Monopoles, Dipoles and Quadrupoles (both atomic AND molecular).

        Atom    Level:     MDC-m        MDC-d        MDC-q
 ---------------------------------------------------------
     1     H            0.051412     0.169695     0.257214
     2     C            0.179930     0.272418     0.104160
     3     N           -0.231341    -0.442113    -0.361375

 ------------------------------------------------ 
 Average absolute deviations in atomic multipoles
 ------------------------------------------------ 

 Stated here are the average differences between the atomic multipoles
 and the reconstructed atomic multipoles (from the distributed charges).
 If these values are not zero, this means there are not enough degrees of freedom,
 to be able to reconstruct the atomic multipoles. (This usually happens only
 for small and/or highly symmetric molecules). If this is the case, one could add
 dummy atoms as extra point charges (and setting INCDUM in MDC-block to 1).

 Level:                                 MDC-d        MDC-q
 ---------------------------------------------------------
 Charge   (a.u.)                       0.0000       0.0000
 Dipole   (Debye)                      0.0000       0.0000
 Quad.    (a.u.)                       0.1998       0.0000

 --------------------------------------- 
 Represented molecular multipole moments
 --------------------------------------- 

 Given here are the Molecular multipole moments from the atomic charges, and from the Fit Density.
 Note that the atomic charges represent the latter, NOT the ones from the Exact density.

            Q (a.u.)             Dipole moment (Debye)                                          Quadrupole moment (a.u.)
                                 x         y         z              xx        xy        xz        yy        yz        zz
------------------------------------------------------------------------------------------------------------------------
MDC-m        -0.0000        0.0000    0.0000   -1.5484          1.6760    0.0000    0.0000    1.6760    0.0000   -3.3520
MDC-d        -0.0000        0.0000    0.0000   -3.3252          3.3482    0.0000    0.0000    3.3482    0.0000   -6.6963
MDC-q        -0.0000        0.0000    0.0000   -3.3252          2.9775    0.0000    0.0000    2.9775    0.0000   -5.9551
 
Fit.Dens.    -0.0000       -0.0000   -0.0000   -3.3252          2.9775    0.0000   -0.0000    2.9775    0.0000   -5.9551



 =============
 Dipole Moment  ***  (Debye)  ***
 =============
  
 Vector   :         0.00000000      0.00000000     -3.32523286
 Magnitude:         3.32523286

 This molecular dipole moment is calculated with analytic integration



 =========================================
 Quadrupole Moment (Buckingham convention)  ***  (a.u.)  ***
 =========================================
  
      quad-xx        quad-xy        quad-xz        quad-yy        quad-yz        quad-zz
      2.97756258     0.00000000     0.00000000     2.97756258     0.00000000    -5.95512517

 This molecular quadrupole moment is calculated with analytic integration



 =======================================================================
 Electrostatic potential at the Nuclei due to electrons and other nuclei
 =======================================================================
  
         Atom                  Potential
         ----                  ---------
     1)   H                   0.95910326
     2)   C                  14.68595471
     3)   N                  18.34339784
 
 
 ========================
 No memory problems found
 ========================
 
 Maximum number of active allocate calls:        1075
 
 *******************************************************************************

                             A D F   E X I T
 NORMAL TERMINATION



 =================
 Timing Statistics
 =================
  
 Total Used :                     CPU=       41.61      System=        0.52     Elapsed=       44.33

 Calls  Section                     ( Mean, Percentage )
 ---------------------------------------------------------------------------------------------------
     3  ><      ................      0.00    0.01             0.00    0.01             0.00    0.01
     1  INIT    ................      0.49    1.18             0.01    1.33             0.77    1.75
     1  GEOMET  ................      0.04    0.10             0.04    7.32             0.08    0.18
     1  FRAGM   ................      0.01    0.02             0.01    1.34             0.02    0.04
     1  INPUTA  ................      0.00    0.01             0.00    0.00             0.00    0.01
     1  ATDEN   ................      0.01    0.02             0.00    0.00             0.01    0.02
     1  MAINSY  ................      0.02    0.04             0.00    0.36             0.02    0.04
     1  SYMFIT  ................      0.00    0.00             0.00    0.01             0.00    0.00
     1  CORORT  ................      0.00    0.00             0.00    0.00             0.00    0.00
     1  SYMORB  ................      0.00    0.00             0.00    0.00             0.00    0.00
     1  FITINT  ................      0.02    0.05             0.00    0.19             0.02    0.05
     1  CLSMAT  ................      0.02    0.04             0.00    0.77             0.02    0.05
     1  ORTHON  ................      0.02    0.05             0.00    0.74             0.03    0.06
     1  GENPT   ................      0.13    0.31             0.02    3.06             0.14    0.33
     1  PTBAS   ................      0.09    0.23             0.00    0.96             0.10    0.22
    11  FOCKY   ................      3.42   90.34             0.04   74.77             3.62   89.94
    11  FOCKTR  ................      0.00    0.07             0.00    1.28             0.00    0.08
    11  SDIIS   ................      0.00    0.10             0.00    1.06             0.00    0.10
     1  COREPS  ................      2.88    6.93             0.01    2.82             2.92    6.60
     1  POPAN   ................      0.18    0.43             0.02    3.57             0.20    0.45
     1  DEBYE   ................      0.01    0.01             0.00    0.00             0.01    0.01
     1  EXIT PROCEDURE .........      0.03    0.07             0.00    0.38             0.03    0.07


 Currently Open Files (EXIT00)
 ====================

 Unit    Access Format  Status   Type       Ident (file)
 -------------------------------------------------------
   3      SEQ    FORM   TRANSP  NORMAL      LOGFILE
                                          ( logfile )


 Buffered I/O statistics
 =======================
 Memory available:                     67108864
 Number of records fitting in memory:     16131
 Input :   0.1% of                       127096  *4k bytes
 Output:   4.5% of                        14988  *4k bytes
 Records from serial files evicted:           0
                    others evicted:           0
 Hash table lookups:     313783 with        258 conflicts (  0.08%)

 ***************************************************************************************************
 (LOGFILE)
 <Mar23-2019> <10:00:02>  ADF 2018  RunTime: Mar23-2019 10:00:02  Nodes: 1  Procs: 1
 <Mar23-2019> <10:00:02>  Hydrogen (TZ2P)
 <Mar23-2019> <10:00:02>  RunType   : CREATE
 <Mar23-2019> <10:00:02>  Net Charge: 0 (Nuclei minus Electrons)
 <Mar23-2019> <10:00:02>  Symmetry  : ATOM
  Coordinates
    Atom         X           Y           Z   (Angstrom)
    1.H         0.000000    0.000000    0.000000
 <Mar23-2019> <10:00:02>  >>>> CORORT
 <Mar23-2019> <10:00:02>  >>>> FITINT
 <Mar23-2019> <10:00:02>  >>>> CLSMAT
 <Mar23-2019> <10:00:02>  >>>> ORTHON
 <Mar23-2019> <10:00:02>  >>>> GENPT
 <Mar23-2019> <10:00:02>  Block Length=  64
 <Mar23-2019> <10:00:02>  >>>> PTBAS
 <Mar23-2019> <10:00:02>  >>>> CYCLE
 <Mar23-2019> <10:00:02>  CalcFitR12Fit
 <Mar23-2019> <10:00:02>  CalcFitCoeff
 <Mar23-2019> <10:00:02>              |Error|         MaxErr       Wt(A-DIIS)
 <Mar23-2019> <10:00:02>      1      0.00000000      0.00000000
 <Mar23-2019> <10:00:02>      2      0.09355017      0.09149985
 <Mar23-2019> <10:00:02>      3      0.00792455      0.00618910    100.0
 <Mar23-2019> <10:00:02>      4      0.00117224      0.00108876      0.1
 <Mar23-2019> <10:00:02>      5      0.00005184      0.00004766      0.0
 <Mar23-2019> <10:00:02>      6      0.00000178      0.00000167      0.0
 <Mar23-2019> <10:00:02>      7      0.00000022      0.00000019      0.0
 <Mar23-2019> <10:00:02>      8      0.00000002      0.00000002      0.0
 <Mar23-2019> <10:00:02>      9      0.00000000      0.00000000      0.0
 <Mar23-2019> <10:00:02>  SCF converged
 <Mar23-2019> <10:00:02>     10      0.00000000      0.00000000      0.0
 <Mar23-2019> <10:00:02>  >>>> POPAN
 <Mar23-2019> <10:00:02>  >>>> DEBYE
 <Mar23-2019> <10:00:02>  NORMAL TERMINATION
 <Mar23-2019> <10:00:02>  END
 <Mar23-2019> <10:00:03>  ADF 2018  RunTime: Mar23-2019 10:00:03  Nodes: 1  Procs: 1
 <Mar23-2019> <10:00:03>  Nitrogen (TZ2P)
 <Mar23-2019> <10:00:03>  RunType   : CREATE
 <Mar23-2019> <10:00:03>  Net Charge: 0 (Nuclei minus Electrons)
 <Mar23-2019> <10:00:03>  Symmetry  : ATOM
  Coordinates
    Atom         X           Y           Z   (Angstrom)
    1.N         0.000000    0.000000    0.000000
 <Mar23-2019> <10:00:03>  >>>> CORORT
 <Mar23-2019> <10:00:03>  >>>> FITINT
 <Mar23-2019> <10:00:03>  >>>> CLSMAT
 <Mar23-2019> <10:00:03>  >>>> ORTHON
 <Mar23-2019> <10:00:03>  >>>> GENPT
 <Mar23-2019> <10:00:03>  Block Length=  72
 <Mar23-2019> <10:00:03>  >>>> PTBAS
 <Mar23-2019> <10:00:03>  >>>> CYCLE
 <Mar23-2019> <10:00:03>  CalcFitR12Fit
 <Mar23-2019> <10:00:03>  CalcFitCoeff
 <Mar23-2019> <10:00:03>              |Error|         MaxErr       Wt(A-DIIS)
 <Mar23-2019> <10:00:03>      1      0.00000000      0.00000000
 <Mar23-2019> <10:00:03>      2      6.56882459      4.17270294    100.0
 <Mar23-2019> <10:00:03>      3      1.72482095      1.33485805    100.0
 <Mar23-2019> <10:00:03>      4      1.05528379      0.63183308    100.0
 <Mar23-2019> <10:00:03>      5      0.48135174      0.33112700    100.0
 <Mar23-2019> <10:00:03>      6      0.25230965      0.16412252    100.0
 <Mar23-2019> <10:00:03>      7      0.12107921      0.08076168     80.6
 <Mar23-2019> <10:00:03>      8      0.04984775      0.03305011     32.4
 <Mar23-2019> <10:00:03>      9      0.00776781      0.00510174      4.1
 <Mar23-2019> <10:00:03>     10      0.00020699      0.00013982      0.0
 <Mar23-2019> <10:00:03>     11      0.00000154      0.00000072      0.0
 <Mar23-2019> <10:00:03>     12      0.00000013      0.00000009      0.0
 <Mar23-2019> <10:00:03>     13      0.00000000      0.00000000      0.0
 <Mar23-2019> <10:00:03>  SCF converged
 <Mar23-2019> <10:00:04>     14      0.00000000      0.00000000      0.0
 <Mar23-2019> <10:00:04>  >>>> POPAN
 <Mar23-2019> <10:00:04>  >>>> DEBYE
 <Mar23-2019> <10:00:04>  NORMAL TERMINATION
 <Mar23-2019> <10:00:04>  END
 <Mar23-2019> <10:00:04>  ADF 2018  RunTime: Mar23-2019 10:00:04  Nodes: 1  Procs: 1
 <Mar23-2019> <10:00:04>  Carbon (TZ2P)
 <Mar23-2019> <10:00:04>  RunType   : CREATE
 <Mar23-2019> <10:00:04>  Net Charge: 0 (Nuclei minus Electrons)
 <Mar23-2019> <10:00:04>  Symmetry  : ATOM
  Coordinates
    Atom         X           Y           Z   (Angstrom)
    1.C         0.000000    0.000000    0.000000
 <Mar23-2019> <10:00:04>  >>>> CORORT
 <Mar23-2019> <10:00:04>  >>>> FITINT
 <Mar23-2019> <10:00:04>  >>>> CLSMAT
 <Mar23-2019> <10:00:04>  >>>> ORTHON
 <Mar23-2019> <10:00:04>  >>>> GENPT
 <Mar23-2019> <10:00:04>  Block Length=  72
 <Mar23-2019> <10:00:04>  >>>> PTBAS
 <Mar23-2019> <10:00:04>  >>>> CYCLE
 <Mar23-2019> <10:00:04>  CalcFitR12Fit
 <Mar23-2019> <10:00:04>  CalcFitCoeff
 <Mar23-2019> <10:00:04>              |Error|         MaxErr       Wt(A-DIIS)
 <Mar23-2019> <10:00:04>      1      0.00000000      0.00000000
 <Mar23-2019> <10:00:04>      2      4.54652179      3.29324191    100.0
 <Mar23-2019> <10:00:04>      3      0.89480728      0.71011234    100.0
 <Mar23-2019> <10:00:04>      4      0.43800021      0.30162830    100.0
 <Mar23-2019> <10:00:04>      5      0.19364748      0.14698179    100.0
 <Mar23-2019> <10:00:04>      6      0.09457241      0.06903942     68.7
 <Mar23-2019> <10:00:04>      7      0.02878916      0.02129433     20.5
 <Mar23-2019> <10:00:04>      8      0.00291134      0.00217908      1.2
 <Mar23-2019> <10:00:04>      9      0.00000333      0.00000163      0.0
 <Mar23-2019> <10:00:05>     10      0.00000042      0.00000032      0.0
 <Mar23-2019> <10:00:05>     11      0.00000000      0.00000000      0.0
 <Mar23-2019> <10:00:05>  SCF converged
 <Mar23-2019> <10:00:05>     12      0.00000000      0.00000000      0.0
 <Mar23-2019> <10:00:05>  >>>> POPAN
 <Mar23-2019> <10:00:05>  >>>> DEBYE
 <Mar23-2019> <10:00:05>  NORMAL TERMINATION
 <Mar23-2019> <10:00:05>  END
 <Mar23-2019> <10:00:05>  ADF 2018  RunTime: Mar23-2019 10:00:05  Nodes: 1  Procs: 4
 <Mar23-2019> <10:00:05>  HCN
 <Mar23-2019> <10:00:06>  RunType   : SINGLE POINT
 <Mar23-2019> <10:00:06>  Net Charge: 0 (Nuclei minus Electrons)
 <Mar23-2019> <10:00:06>  Symmetry  : C(LIN)
 <Mar23-2019> <10:00:06>  >>>> FRAGM
  Coordinates
    Atom         X           Y           Z   (Angstrom)
    1.H         0.000000    0.000000    0.000000
    2.C         0.000000    0.000000    1.066800
    3.N         0.000000    0.000000    2.223200
 <Mar23-2019> <10:00:06>  >>>> CORORT
 <Mar23-2019> <10:00:06>  >>>> FITINT
 <Mar23-2019> <10:00:06>  >>>> CLSMAT
 <Mar23-2019> <10:00:06>  >>>> ORTHON
 <Mar23-2019> <10:00:06>  >>>> GENPT
 <Mar23-2019> <10:00:06>  Block Length= 128
 <Mar23-2019> <10:00:06>  >>>> PTBAS
 <Mar23-2019> <10:00:06>  >>>> CYCLE
 <Mar23-2019> <10:00:08>  CalcFitR12Fit
 <Mar23-2019> <10:00:08>  CalcFitCoeff
 <Mar23-2019> <10:00:14>              |Error|         MaxErr       Wt(A-DIIS)
 <Mar23-2019> <10:00:14>      1      3.37664713      1.62567050
 <Mar23-2019> <10:00:17>      2      0.52207736      0.20239778    100.0
 <Mar23-2019> <10:00:20>      3      0.43906279      0.17396102    100.0
 <Mar23-2019> <10:00:23>      4      0.15747886      0.07013805     69.8
 <Mar23-2019> <10:00:26>      5      0.10572202      0.04156500     41.0
 <Mar23-2019> <10:00:30>      6      0.01491056      0.00725942      6.3
 <Mar23-2019> <10:00:34>      7      0.00176724      0.00060972      0.0
 <Mar23-2019> <10:00:37>      8      0.00011752      0.00004988      0.0
 <Mar23-2019> <10:00:39>      9      0.00000878      0.00000387      0.0
 <Mar23-2019> <10:00:42>     10      0.00000140      0.00000058      0.0
 <Mar23-2019> <10:00:44>  SCF converged
 <Mar23-2019> <10:00:46>     11      0.00000015      0.00000005      0.0
 <Mar23-2019> <10:00:49>   Total energy        -92.91102385 a.u.
 <Mar23-2019> <10:00:49>  >>>> POPAN
 <Mar23-2019> <10:00:49>  >>>> DEBYE
 <Mar23-2019> <10:00:49>  NORMAL TERMINATION
 <Mar23-2019> <10:00:49>  END
