 
Create H   file=QZ4P-H
XC
  HartreeFock
End
  HartreeFock

 *******************************************************************************
 *                                                                             *
 *  -------------------------------------                                      *
 *   Amsterdam Density Functional  (ADF)         2018                          *
 *  -------------------------------------                                      *
 *                                               r70630 2018-11-24             *
 *                                                                             *
 *                                                                             *
 *                              =================                              *
 *                              |               |                              *
 *                              |     A D F     |                              *
 *                              |               |                              *
 *                              =================                              *
 *                                                                             *
 *                                                                             *
 *   Online information and documentation:  https://www.scm.com/support/       *
 *   E-mail:  support@scm.com   info@scm.com                                   *
 *                                                                             *
 *   Scientific publications using ADF results must be properly referenced     *
 *   See the User Manuals (or the web site) for recommended citations          *
 *   The terms and conditions of the End User License Agreement apply to       *
 *   the use of ADF, https://www.scm.com/license-terms/                        *
 *                                                                             *
 **********************  x86_64_linux_intel / intelmpi  ************************
 
 Licensed to: Mr. Vladimir Konjkov / Florida Institute of Technology / Melbourne / Florida / USA
 SCM User ID: u21173
  
 ADF 2018  RunTime: Mar23-2019 10:00:01  Nodes: 1  Procs: 1

 Temporary files are created in /tmp/kid_0.1083434709

 Hydrogen (QZ, all electron, 5S 2P 2D)



 ===========================
 A T T A C H E D   F I L E S
 ===========================
  
 CREATE - Data File:    QZ4P-H
                        Hydrogen (QZ, all electron, 5S 2P 2D)



 ===============================
 M O D E L   P A R A M E T E R S
 ===============================
  
 DENSITY FUNCTIONAL POTENTIAL (scf)
    Hybrid:                            HARTREEFOCK                             == Not Default ==

 SPIN  (restricted / unrestr.)
    Molecule:                          Restricted                               

 OTHER ASPECTS
    Relativistic Corrections:          ---                                      

    Nuclear Charge Density Model:      Point Charge Nuclei                      
    Core Treatment:                    Frozen Orbital(s)                        

    Hyperfine or Zeeman Interaction:   ---                                      



 =====================================
 S Y M M E T R Y ,   E L E C T R O N S
 =====================================
  
 Symmetry: ATOM

 Irreducible Representations, including subspecies
 -------------------------------------------------
 S
 P:x  P:y  P:z
 D:z2  D:x2-y2  D:xy  D:xz  D:yz
 F:z3  F:z  F:xyz  F:z2x  F:z2y  F:x  F:y


 Configuration of Valence Electrons
 ==================================

          Occupation Numbers
          -------------------------------------------------
 S        1
 P        0
 D        0
 F        0
          -------------------------------------------------

 Total:   1

 Net Charge: 0 (Nuclei minus Electrons)

 Preset values for MO occupations will be applied through SCF cycle no. 1000000
 Thereafter, the program will assign electrons to MOs that are spatially
 similar to the occupied MOs in a "reference" cycle ("KeepOrbitals").
 The reference cycle is always the PREVIOUS cycle: it will evolve with
 the SCF procedure.



 ================================
 (Slater-type)  F U N C T I O N S  ***  (Basis and Fit)  ***
 ================================
  

 Atom Type    1  (H)
 ==============

 Valence Basis Sets:   9
 -----------------------
   1 S    3.300000
   1 S    2.000000
   1 S    1.400000
   1 S    1.000000
   1 S    0.710000
   2 P    2.000000
   2 P    1.000000
   3 D    2.500000
   3 D    1.500000

 Charge Fitting Sets (for the computation of the Coulomb Potential):  22
 -----------------------------------------------------------------------
   1 S    6.600000
   1 S    4.620000
   1 S    3.230000
   1 S    2.260000
   1 S    1.580000
   1 S    1.100000
   1 S    0.770000
   2 S    1.000000
   2 P    5.300000
   2 P    3.870000
   2 P    2.820000
   2 P    2.060000
   2 P    1.500000
   3 D    5.800000
   3 D    4.070000
   3 D    2.850000
   3 D    2.000000
   4 F    4.500000
   4 F    3.350000
   4 F    2.500000
   5 G    5.000000
   5 G    3.000000


 BAS: List of all Elementary Cartesian Basis Functions
 =====================================================

 The numbering in the list below (to the right of the function characteristics) is referred
 to in print-outs of MO eigenvectors and Mulliken populations in the BAS representation
 (as contrasted to the SFO representation).

 Notes:
 1. The functions are characterized by a polynomial prefactor (powers of x,y,z and r) and
    an exponential decay factor alpha.
 2. Since the basis sets are specific for an atom TYPE, the individual functions occur on
    all atoms of that type.
 3. The word 'Core' in the left margin signals that it is a Core Function (CF) : not a
    degree of freedom in the valence set, but only used to ensure orthogonalization of
    the other valence basis functions on the frozen Core Orbitals.


 (power of) X  Y  Z  R     Alpha  on Atom
            ==========     =====     ==========

 H                                    1
                                  ---------------------------------------------------------------------------
            0  0  0  0     3.300      1
            0  0  0  0     2.000      2
            0  0  0  0     1.400      3
            0  0  0  0     1.000      4
            0  0  0  0     0.710      5
            1  0  0  0     2.000      6
            0  1  0  0     2.000      7
            0  0  1  0     2.000      8
            1  0  0  0     1.000      9
            0  1  0  0     1.000     10
            0  0  1  0     1.000     11
            2  0  0  0     2.500     12
            1  1  0  0     2.500     13
            1  0  1  0     2.500     14
            0  2  0  0     2.500     15
            0  1  1  0     2.500     16
            0  0  2  0     2.500     17
            2  0  0  0     1.500     18
            1  1  0  0     1.500     19
            1  0  1  0     1.500     20
            0  2  0  0     1.500     21
            0  1  1  0     1.500     22
            0  0  2  0     1.500     23

 Total number of charge fitting functions (nprimf)       107
 Total number of Cartesian basis functions (naos)         23
 Total number of Cartesian core functions  (ncos)          0



 BAS: List of all Elementary Cartesian Basis Functions
 =====================================================

 The numbering in the list below (to the right of the function characteristics) is referred
 to in print-outs of MO eigenvectors and Mulliken populations in the BAS representation
 (as contrasted to the SFO representation).

 Notes:
 1. The functions are characterized by a polynomial prefactor (powers of x,y,z and r) and
    an exponential decay factor alpha.
 2. Since the basis sets are specific for an atom TYPE, the individual functions occur on
    all atoms of that type.
 3. The word 'Core' in the left margin signals that it is a Core Function (CF) : not a
    degree of freedom in the valence set, but only used to ensure orthogonalization of
    the other valence basis functions on the frozen Core Orbitals.


 (power of) X  Y  Z  R     Alpha  on Atom
            ==========     =====     ==========

 H                                    1
                                  ---------------------------------------------------------------------------
            0  0  0  0     3.300      1
            0  0  0  0     2.000      2
            0  0  0  0     1.400      3
            0  0  0  0     1.000      4
            0  0  0  0     0.710      5
            1  0  0  0     2.000      6
            0  1  0  0     2.000      7
            0  0  1  0     2.000      8
            1  0  0  0     1.000      9
            0  1  0  0     1.000     10
            0  0  1  0     1.000     11
            2  0  0  0     2.500     12
            1  1  0  0     2.500     13
            1  0  1  0     2.500     14
            0  2  0  0     2.500     15
            0  1  1  0     2.500     16
            0  0  2  0     2.500     17
            2  0  0  0     1.500     18
            1  1  0  0     1.500     19
            1  0  1  0     1.500     20
            0  2  0  0     1.500     21
            0  1  1  0     1.500     22
            0  0  2  0     1.500     23
1
 ***************************************************************************************************



                                              ***********************
                                              *  T E C H N I C A L  *
                                              ***********************
  



 =============================================================
 P A R A L L E L I Z A T I O N  and  V E C T O R I Z A T I O N
 =============================================================
  
 Nr of parallel processes:                                1
 Maximum vector length in NumInt loops:                 128

 IO buffersize (Mb):                                     64.000000



 =====================
 S C F   U P D A T E S
 =====================
  
 Max. nr. of cycles:                               300
 Convergence criterion:                              0.0000000100
   secondary criterion:                              0.0000000100

 Mix parameter (when DIIS does not apply):           0.2000000000
 Special mix parameter for the first cycle:          1.0000000000
 Mixed ADIIS+DIIS will be used
    Max number of expansion vectors:                10
    Pure ADIIS when Max([F,P]) is above              0.1000000000
    Pure DIIS when Max([F,P]) is below               0.0010000000
 Automatic ElectronSmearing (in case of problematic SCF convergence) disabled



 =================
 P R E C I S I O N  ***  (General: NumInt, NeglectFunctionTails, ...)  ***
 =================
  

 NumInt:           Target precision:                12.0000000000
 -------           Initial precision:               10.0000000000
                   Min. precision (optimization):   10.0000000000

 Neglect Functions:          Basis functions:        0.1000000000E-13
 ------------------          Fit functions:          0.1000000000E-13



 ===========================
 L I N E A R   S C A L I N G
 ===========================
  

 Cut-off radii density fit:                        0.1000000000E-97
 Overlap cut-off criterion AO matrix elements:     0.1000000000E-97
 Cut-offs for Coulomb potential and fitted density:0.1000000000E-97
 Cut-off criterion for Coulomb multipole terms:    0.1000000000E-97
 Progressive Convergence parameter:                 0.000000000    
1
 ***************************************************************************************************



                                            ***************************
                                            *  C O M P U T A T I O N  *
                                            ***************************
  

 Number of elements of the density matrix on this node (used, total):       276       276



 ===========================================
 Numerical Integration : Fuzzy Cells (Becke)
 ===========================================
  
 Becke grid quality: VERYGOOD       
  
 Lebedev angular grid order:             min:  13 max:  41
 Nr. of radial points:                   min:  64 max:  64

 Total nr. of points:         64
 Nr. of blocks:                1
 Block length:                64
 Nr. of dummy points:          0


 Test of Precision of the Numerical Integration Grid
 ===================================================

 Integral of the Total Core Density:                   0.00000000000000



 ========================
 Density Fitting (zlmFit)
 ========================
  
 ZlmFit Fit Quality: VERYGOOD       
  
 Max L-expansion:                        min:   0 max:   0
 Nr. of radial interpolation points:     min: 130 max: 130



 ======================
 RI Hartree-Fock Scheme
 ======================
  
 Fit Set Quality     : NORMAL
 Integration Quality : NORMAL
 Threshold Quality   : NORMAL
 Response Quality    : DEFAULT
 Is Range Separated  :  F
 
 RIHartreeFock Dependency: number of modified vectors:           1



 =====
 S C F  ***  ScaSCF  ***
 =====
  

 CYCLE    1
 SCF Error: norm([F,P])=      0.000000000000, max([F,P])=      0.000000000000
 orbitals (Q,E):
 ---------------
 S :1...5            ( 1.00    -0.5000)  ( 0.00    -0.1102)  ( 0.00     0.2912)  ( 0.00     2.1461)
                     ( 0.00    15.1247)
 P :1...2            ( 0.00    -0.0467)  ( 0.00     1.6701)
 D :1...2            ( 0.00     0.4090)  ( 0.00     3.3832)

 CYCLE    2
 SCF Error: norm([F,P])=      0.093980341628, max([F,P])=      0.086807828877
 orbitals (Q,E):
 ---------------
 S :1...2            ( 1.00    -0.1999)  ( 0.00     0.1209)
 P :1...1            ( 0.00     0.3143)
 D :1...1            ( 0.00     0.7862)

 CYCLE    3
  SDIIS (wt  0.000): -0.0564  1.0564
 A-DIIS (wt  1.000):  0.0000  1.0000
  DIIS coefficients:  0.0000  1.0000
 SCF Error: norm([F,P])=      0.008160665247, max([F,P])=      0.006729604473
 orbitals (Q,E):
 ---------------
 S :1...2            ( 1.00    -0.2265)  ( 0.00     0.1194)
 P :1...1            ( 0.00     0.2962)
 D :1...1            ( 0.00     0.7709)

 CYCLE    4
  SDIIS (wt  1.000): -0.1304  1.1304
  DIIS coefficients: -0.1304  1.1304
 SCF Error: norm([F,P])=      0.001305452545, max([F,P])=      0.000945572548
 orbitals (Q,E):
 ---------------
 S :1...2            ( 1.00    -0.2294)  ( 0.00     0.1190)
 P :1...1            ( 0.00     0.2936)
 D :1...1            ( 0.00     0.7685)

 CYCLE    5
  SDIIS (wt  1.000):  0.0182 -0.1857  1.1675
  DIIS coefficients:  0.0182 -0.1857  1.1675
 SCF Error: norm([F,P])=      0.000137342269, max([F,P])=      0.000109612709
 orbitals (Q,E):
 ---------------
 S :1...2            ( 1.00    -0.2295)  ( 0.00     0.1189)
 P :1...1            ( 0.00     0.2935)
 D :1...1            ( 0.00     0.7684)

 CYCLE    6
  SDIIS (wt  1.000): -0.0008  0.0073 -0.0586  1.0522
  DIIS coefficients: -0.0008  0.0073 -0.0586  1.0522
 SCF Error: norm([F,P])=      0.000002728098, max([F,P])=      0.000002372383
 orbitals (Q,E):
 ---------------
 S :1...2            ( 1.00    -0.2295)  ( 0.00     0.1189)
 P :1...1            ( 0.00     0.2935)
 D :1...1            ( 0.00     0.7684)

 CYCLE    7
  SDIIS (wt  1.000):  0.0000 -0.0003  0.0057  0.9946
  DIIS coefficients:  0.0000 -0.0003  0.0057  0.9946
 SCF Error: norm([F,P])=      0.000000021643, max([F,P])=      0.000000015393
 orbitals (Q,E):
 ---------------
 S :1...2            ( 1.00    -0.2295)  ( 0.00     0.1189)
 P :1...1            ( 0.00     0.2935)
 D :1...1            ( 0.00     0.7684)

 CYCLE    8
  SDIIS (wt  1.000): -0.0000  0.0000  0.0029  0.9971
  DIIS coefficients: -0.0000  0.0000  0.0029  0.9971
 SCF Error: norm([F,P])=      0.000000000116, max([F,P])=      0.000000000103
 orbitals (Q,E):
 ---------------
 S :1...2            ( 1.00    -0.2295)  ( 0.00     0.1189)
 P :1...1            ( 0.00     0.2935)
 D :1...1            ( 0.00     0.7684)

 SCF CONVERGED

 CYCLE    9
1
 ***************************************************************************************************



                                                *******************
                                                *  R E S U L T S  *
                                                *******************
  
  
 Hartree-Fock exchange energy:  -0.128219550455408     
 *** Setting up for NEW gradients in Focky
 *** Using FIT density in Focky

 Orbital Energies, per Irrep and Spin:
 ======================================
                        Occup              E (au)              E (eV)       Diff (eV) with prev. cycle
                        -----      --------------------        ------       --------------------------
 S
               1        1.000     -0.22949094746215E+00        -6.245              -6.29E-12
               2        0.000      0.11894133910318E+00         3.237
               3        0.000      0.65705773962082E+00        17.879
               4        0.000      0.27038484894994E+01        73.575
               5        0.000      0.15833474185234E+02       430.851
 P
               1        0.000      0.29347775676049E+00         7.986
               2        0.000      0.22222669693709E+01        60.471
 D
               1        0.000      0.76837307073916E+00        20.908
               2        0.000      0.39447082782870E+01       107.341


 Partially Occupied:
               1 S                -0.22949094746215E+00
  
 LUMO :        2 S                 0.11894133910318E+00
  


 Orbital Energies, all Irreps
 ========================================

 Irrep        no.  (spin)   Occup              E (au)                E (eV)
 ---------------------------------------------------------------------------
 S             1             1.00       -0.22949094746215E+00        -6.2448
 S             2             0.00        0.11894133910318E+00         3.2366
 P             1             0.00        0.29347775676049E+00         7.9859
 S             3             0.00        0.65705773962082E+00        17.8795
 D             1             0.00        0.76837307073916E+00        20.9085
 P             2             0.00        0.22222669693709E+01        60.4710
 S             4             0.00        0.27038484894994E+01        73.5755
 D             2             0.00        0.39447082782870E+01       107.3410
 S             5             0.00        0.15833474185234E+02       430.8508


 All Electron Calculation, thus no Orbital Energies of the Core Orbitals are calculated



 =======================================
 M U L L I K E N   P O P U L A T I O N S
 =======================================
  
 The survey below gives for each atom:
 a) the total charge (Z minus electrons)
 b) the net spin polarization (nr of electrons spin-A minus spin-B)
 c) for each spin the atomic electron valence density (integrated) per L-value.

 Atom              Charge    Spin density          S         P         D         F
 ----              ------    ------------       ------    ------    ------    ------
 1 H              -0.0000                       1.0000    0.0000    0.0000    0.0000

 Populations of individual BAS functions
 ----------------------------------------
 1 H           -0.0005  0.0158  0.1205  0.1077  0.7564  0.0000  0.0000  0.0000  0.0000  0.0000
                0.0000  0.0000  0.0000  0.0000  0.0000  0.0000  0.0000  0.0000  0.0000  0.0000
                0.0000  0.0000  0.0000

 Gross Charges per Atom (Z minus electrons)
 ==========================================
            -0.0000
 Net Total: -0.00000000



 =======================================================================
 Electrostatic potential at the Nuclei due to electrons and other nuclei
 =======================================================================
  
         Atom                  Potential
         ----                  ---------
     1)   H                   0.84363730
 
 
 ========================
 No memory problems found
 ========================
 
 Maximum number of active allocate calls:         370
 
 *******************************************************************************

                             A D F   E X I T
 NORMAL TERMINATION



 =================
 Timing Statistics
 =================
  
 Total Used :                     CPU=        0.44      System=        0.05     Elapsed=        1.83

 Calls  Section                     ( Mean, Percentage )
 ---------------------------------------------------------------------------------------------------
     3  ><      ................      0.00    0.74             0.00    0.16             0.00    0.49
     1  INIT    ................      0.03    7.72             0.00    4.77             1.25   68.18
     1  GEOMET  ................      0.03    5.80             0.03   55.50             0.09    5.11
     1  INPUTA  ................      0.00    1.13             0.00    0.36             0.01    0.35
     1  MAINSY  ................      0.01    1.87             0.00    4.04             0.02    1.11
     1  SYMFIT  ................      0.00    0.15             0.00    0.75             0.00    0.10
     1  CORORT  ................      0.00    0.13             0.00    0.31             0.00    0.04
     1  SYMORB  ................      0.00    0.15             0.00    0.00             0.00    0.04
     1  FITINT  ................      0.01    1.65             0.00    0.00             0.01    0.59
     1  CLSMAT  ................      0.00    0.30             0.00    0.00             0.00    0.10
     1  ORTHON  ................      0.01    1.24             0.00    0.58             0.01    0.61
     1  GENPT   ................      0.01    3.35             0.00    0.00             0.02    1.02
     1  PTBAS   ................      0.00    0.93             0.00    0.60             0.01    0.48
     9  FOCKY   ................      0.03   62.95             0.00   16.93             0.04   17.65
     9  FOCKTR  ................      0.00    1.02             0.00    3.32             0.00    0.35
     9  SDIIS   ................      0.00    3.84             0.00    7.88             0.00    1.61
     1  COREPS  ................      0.01    2.53             0.00    3.90             0.02    0.85
     1  POPAN   ................      0.00    1.07             0.00    0.38             0.01    0.37
     1  DEBYE   ................      0.00    0.34             0.00    0.25             0.00    0.18
     1  EXIT PROCEDURE .........      0.01    3.08             0.00    0.28             0.01    0.77


 Currently Open Files (EXIT00)
 ====================

 Unit    Access Format  Status   Type       Ident (file)
 -------------------------------------------------------
   3      SEQ    FORM   TRANSP  NORMAL      LOGFILE
                                          ( logfile )


 Buffered I/O statistics
 =======================
 Memory available:                     67108864
 Number of records fitting in memory:     16131
 Input :   0.1% of                        23041  *4k bytes
 Output:  16.2% of                         1089  *4k bytes
 Records from serial files evicted:           0
                    others evicted:           0
 Hash table lookups:      46943 with          0 conflicts (  0.00%)

 ***************************************************************************************************
 (LOGFILE)
 <Mar23-2019> <10:00:01>  ADF 2018  RunTime: Mar23-2019 10:00:01  Nodes: 1  Procs: 1
 <Mar23-2019> <10:00:01>  Hydrogen (QZ, all electron, 5S 2P 2D)
 <Mar23-2019> <10:00:01>  RunType   : CREATE
 <Mar23-2019> <10:00:01>  Net Charge: 0 (Nuclei minus Electrons)
 <Mar23-2019> <10:00:01>  Symmetry  : ATOM
  Coordinates
    Atom         X           Y           Z   (Angstrom)
    1.H         0.000000    0.000000    0.000000
 <Mar23-2019> <10:00:02>  >>>> CORORT
 <Mar23-2019> <10:00:02>  >>>> FITINT
 <Mar23-2019> <10:00:02>  >>>> CLSMAT
 <Mar23-2019> <10:00:02>  >>>> ORTHON
 <Mar23-2019> <10:00:02>  >>>> GENPT
 <Mar23-2019> <10:00:02>  Block Length=  64
 <Mar23-2019> <10:00:02>  >>>> PTBAS
 <Mar23-2019> <10:00:02>  >>>> CYCLE
 <Mar23-2019> <10:00:02>  CalcFitR12Fit
 <Mar23-2019> <10:00:02>  CalcFitCoeff
 <Mar23-2019> <10:00:02>              |Error|         MaxErr       Wt(A-DIIS)
 <Mar23-2019> <10:00:02>      1      0.00000000      0.00000000
 <Mar23-2019> <10:00:02>      2      0.09398034      0.08680783
 <Mar23-2019> <10:00:02>      3      0.00816067      0.00672960    100.0
 <Mar23-2019> <10:00:02>      4      0.00130545      0.00094557      0.0
 <Mar23-2019> <10:00:02>      5      0.00013734      0.00010961      0.0
 <Mar23-2019> <10:00:02>      6      0.00000273      0.00000237      0.0
 <Mar23-2019> <10:00:02>      7      0.00000002      0.00000002      0.0
 <Mar23-2019> <10:00:02>      8      0.00000000      0.00000000      0.0
 <Mar23-2019> <10:00:02>  SCF converged
 <Mar23-2019> <10:00:02>      9      0.00000000      0.00000000      0.0
 <Mar23-2019> <10:00:02>  >>>> POPAN
 <Mar23-2019> <10:00:02>  >>>> DEBYE
 <Mar23-2019> <10:00:02>  NORMAL TERMINATION
 <Mar23-2019> <10:00:02>  END
 
Create N   file=QZ4P-N
XC
  HartreeFock
End
  HartreeFock

 *******************************************************************************
 *                                                                             *
 *  -------------------------------------                                      *
 *   Amsterdam Density Functional  (ADF)         2018                          *
 *  -------------------------------------                                      *
 *                                               r70630 2018-11-24             *
 *                                                                             *
 *                                                                             *
 *                              =================                              *
 *                              |               |                              *
 *                              |     A D F     |                              *
 *                              |               |                              *
 *                              =================                              *
 *                                                                             *
 *                                                                             *
 *   Online information and documentation:  https://www.scm.com/support/       *
 *   E-mail:  support@scm.com   info@scm.com                                   *
 *                                                                             *
 *   Scientific publications using ADF results must be properly referenced     *
 *   See the User Manuals (or the web site) for recommended citations          *
 *   The terms and conditions of the End User License Agreement apply to       *
 *   the use of ADF, https://www.scm.com/license-terms/                        *
 *                                                                             *
 **********************  x86_64_linux_intel / intelmpi  ************************
 
 Licensed to: Mr. Vladimir Konjkov / Florida Institute of Technology / Melbourne / Florida / USA
 SCM User ID: u21173
  
 ADF 2018  RunTime: Mar23-2019 10:00:02  Nodes: 1  Procs: 1

 Temporary files are created in /tmp/kid_0.1529271792

 Nitrogen (QZ, all electron, 8S 4P 2D 2F)



 ===========================
 A T T A C H E D   F I L E S
 ===========================
  
 CREATE - Data File:    QZ4P-N
                        Nitrogen (QZ, all electron, 8S 4P 2D 2F)



 ===============================
 M O D E L   P A R A M E T E R S
 ===============================
  
 DENSITY FUNCTIONAL POTENTIAL (scf)
    Hybrid:                            HARTREEFOCK                             == Not Default ==

 SPIN  (restricted / unrestr.)
    Molecule:                          Restricted                               

 OTHER ASPECTS
    Relativistic Corrections:          ---                                      

    Nuclear Charge Density Model:      Point Charge Nuclei                      
    Core Treatment:                    Frozen Orbital(s)                        

    Hyperfine or Zeeman Interaction:   ---                                      



 =====================================
 S Y M M E T R Y ,   E L E C T R O N S
 =====================================
  
 Symmetry: ATOM

 Irreducible Representations, including subspecies
 -------------------------------------------------
 S
 P:x  P:y  P:z
 D:z2  D:x2-y2  D:xy  D:xz  D:yz
 F:z3  F:z  F:xyz  F:z2x  F:z2y  F:x  F:y


 Configuration of Valence Electrons
 ==================================

          Occupation Numbers
          -------------------------------------------------
 S        2*2
 P        3
 D        0
 F        0
          -------------------------------------------------

 Total:   7

 Net Charge: 0 (Nuclei minus Electrons)

 Preset values for MO occupations will be applied through SCF cycle no. 1000000
 Thereafter, the program will assign electrons to MOs that are spatially
 similar to the occupied MOs in a "reference" cycle ("KeepOrbitals").
 The reference cycle is always the PREVIOUS cycle: it will evolve with
 the SCF procedure.



 ================================
 (Slater-type)  F U N C T I O N S  ***  (Basis and Fit)  ***
 ================================
  

 Atom Type    1  (N)
 ==============

 Valence Basis Sets:  16
 -----------------------
   1 S   12.850000
   1 S    7.650000
   1 S    5.750000
   2 S    6.850000
   2 S    3.200000
   2 S    2.050000
   2 S    1.400000
   2 S    0.700000
   2 P    6.100000
   2 P    2.950000
   2 P    1.600000
   2 P    0.940000
   3 D    2.500000
   3 D    1.500000
   4 F    4.000000
   4 F    2.000000

 Charge Fitting Sets (for the computation of the Coulomb Potential):  37
 -----------------------------------------------------------------------
   1 S   25.700000
   1 S   19.830000
   1 S   15.300000
   1 S   10.210000
   2 S   12.580000
   2 S    9.200000
   2 S    6.720000
   2 S    4.920000
   3 S    5.260000
   3 S    4.030000
   3 S    3.100000
   3 S    2.380000
   3 S    1.820000
   3 S    1.400000
   2 P   13.750000
   2 P    9.280000
   2 P    6.260000
   3 P    6.200000
   3 P    4.440000
   3 P    3.190000
   3 P    2.290000
   3 P    1.640000
   3 D   12.200000
   3 D    8.020000
   3 D    5.270000
   4 D    4.610000
   4 D    3.180000
   4 D    2.200000
   4 F   11.650000
   4 F    7.560000
   4 F    4.910000
   5 F    3.990000
   5 F    2.700000
   5 G   10.100000
   5 G    6.690000
   5 G    4.440000
   5 G    2.940000


 BAS: List of all Elementary Cartesian Basis Functions
 =====================================================

 The numbering in the list below (to the right of the function characteristics) is referred
 to in print-outs of MO eigenvectors and Mulliken populations in the BAS representation
 (as contrasted to the SFO representation).

 Notes:
 1. The functions are characterized by a polynomial prefactor (powers of x,y,z and r) and
    an exponential decay factor alpha.
 2. Since the basis sets are specific for an atom TYPE, the individual functions occur on
    all atoms of that type.
 3. The word 'Core' in the left margin signals that it is a Core Function (CF) : not a
    degree of freedom in the valence set, but only used to ensure orthogonalization of
    the other valence basis functions on the frozen Core Orbitals.


 (power of) X  Y  Z  R     Alpha  on Atom
            ==========     =====     ==========

 N                                    1
                                  ---------------------------------------------------------------------------
            0  0  0  0    12.850      1
            0  0  0  0     7.650      2
            0  0  0  0     5.750      3
            0  0  0  1     6.850      4
            0  0  0  1     3.200      5
            0  0  0  1     2.050      6
            0  0  0  1     1.400      7
            0  0  0  1     0.700      8
            1  0  0  0     6.100      9
            0  1  0  0     6.100     10
            0  0  1  0     6.100     11
            1  0  0  0     2.950     12
            0  1  0  0     2.950     13
            0  0  1  0     2.950     14
            1  0  0  0     1.600     15
            0  1  0  0     1.600     16
            0  0  1  0     1.600     17
            1  0  0  0     0.940     18
            0  1  0  0     0.940     19
            0  0  1  0     0.940     20
            2  0  0  0     2.500     21
            1  1  0  0     2.500     22
            1  0  1  0     2.500     23
            0  2  0  0     2.500     24
            0  1  1  0     2.500     25
            0  0  2  0     2.500     26
            2  0  0  0     1.500     27
            1  1  0  0     1.500     28
            1  0  1  0     1.500     29
            0  2  0  0     1.500     30
            0  1  1  0     1.500     31
            0  0  2  0     1.500     32
            3  0  0  0     4.000     33
            2  1  0  0     4.000     34
            2  0  1  0     4.000     35
            1  2  0  0     4.000     36
            1  1  1  0     4.000     37
            1  0  2  0     4.000     38
            0  3  0  0     4.000     39
            0  2  1  0     4.000     40
            0  1  2  0     4.000     41
            0  0  3  0     4.000     42
            3  0  0  0     2.000     43
            2  1  0  0     2.000     44
            2  0  1  0     2.000     45
            1  2  0  0     2.000     46
            1  1  1  0     2.000     47
            1  0  2  0     2.000     48
            0  3  0  0     2.000     49
            0  2  1  0     2.000     50
            0  1  2  0     2.000     51
            0  0  3  0     2.000     52

 Total number of charge fitting functions (nprimf)       184
 Total number of Cartesian basis functions (naos)         52
 Total number of Cartesian core functions  (ncos)          0



 BAS: List of all Elementary Cartesian Basis Functions
 =====================================================

 The numbering in the list below (to the right of the function characteristics) is referred
 to in print-outs of MO eigenvectors and Mulliken populations in the BAS representation
 (as contrasted to the SFO representation).

 Notes:
 1. The functions are characterized by a polynomial prefactor (powers of x,y,z and r) and
    an exponential decay factor alpha.
 2. Since the basis sets are specific for an atom TYPE, the individual functions occur on
    all atoms of that type.
 3. The word 'Core' in the left margin signals that it is a Core Function (CF) : not a
    degree of freedom in the valence set, but only used to ensure orthogonalization of
    the other valence basis functions on the frozen Core Orbitals.


 (power of) X  Y  Z  R     Alpha  on Atom
            ==========     =====     ==========

 N                                    1
                                  ---------------------------------------------------------------------------
            0  0  0  0    12.850      1
            0  0  0  0     7.650      2
            0  0  0  0     5.750      3
            0  0  0  1     6.850      4
            0  0  0  1     3.200      5
            0  0  0  1     2.050      6
            0  0  0  1     1.400      7
            0  0  0  1     0.700      8
            1  0  0  0     6.100      9
            0  1  0  0     6.100     10
            0  0  1  0     6.100     11
            1  0  0  0     2.950     12
            0  1  0  0     2.950     13
            0  0  1  0     2.950     14
            1  0  0  0     1.600     15
            0  1  0  0     1.600     16
            0  0  1  0     1.600     17
            1  0  0  0     0.940     18
            0  1  0  0     0.940     19
            0  0  1  0     0.940     20
            2  0  0  0     2.500     21
            1  1  0  0     2.500     22
            1  0  1  0     2.500     23
            0  2  0  0     2.500     24
            0  1  1  0     2.500     25
            0  0  2  0     2.500     26
            2  0  0  0     1.500     27
            1  1  0  0     1.500     28
            1  0  1  0     1.500     29
            0  2  0  0     1.500     30
            0  1  1  0     1.500     31
            0  0  2  0     1.500     32
            3  0  0  0     4.000     33
            2  1  0  0     4.000     34
            2  0  1  0     4.000     35
            1  2  0  0     4.000     36
            1  1  1  0     4.000     37
            1  0  2  0     4.000     38
            0  3  0  0     4.000     39
            0  2  1  0     4.000     40
            0  1  2  0     4.000     41
            0  0  3  0     4.000     42
            3  0  0  0     2.000     43
            2  1  0  0     2.000     44
            2  0  1  0     2.000     45
            1  2  0  0     2.000     46
            1  1  1  0     2.000     47
            1  0  2  0     2.000     48
            0  3  0  0     2.000     49
            0  2  1  0     2.000     50
            0  1  2  0     2.000     51
            0  0  3  0     2.000     52
1
 ***************************************************************************************************



                                              ***********************
                                              *  T E C H N I C A L  *
                                              ***********************
  



 =============================================================
 P A R A L L E L I Z A T I O N  and  V E C T O R I Z A T I O N
 =============================================================
  
 Nr of parallel processes:                                1
 Maximum vector length in NumInt loops:                 128

 IO buffersize (Mb):                                     64.000000



 =====================
 S C F   U P D A T E S
 =====================
  
 Max. nr. of cycles:                               300
 Convergence criterion:                              0.0000000100
   secondary criterion:                              0.0000000100

 Mix parameter (when DIIS does not apply):           0.2000000000
 Special mix parameter for the first cycle:          1.0000000000
 Mixed ADIIS+DIIS will be used
    Max number of expansion vectors:                10
    Pure ADIIS when Max([F,P]) is above              0.1000000000
    Pure DIIS when Max([F,P]) is below               0.0010000000
 Automatic ElectronSmearing (in case of problematic SCF convergence) disabled



 =================
 P R E C I S I O N  ***  (General: NumInt, NeglectFunctionTails, ...)  ***
 =================
  

 NumInt:           Target precision:                12.0000000000
 -------           Initial precision:               10.0000000000
                   Min. precision (optimization):   10.0000000000

 Neglect Functions:          Basis functions:        0.1000000000E-13
 ------------------          Fit functions:          0.1000000000E-13



 ===========================
 L I N E A R   S C A L I N G
 ===========================
  

 Cut-off radii density fit:                        0.1000000000E-97
 Overlap cut-off criterion AO matrix elements:     0.1000000000E-97
 Cut-offs for Coulomb potential and fitted density:0.1000000000E-97
 Cut-off criterion for Coulomb multipole terms:    0.1000000000E-97
 Progressive Convergence parameter:                 0.000000000    
1
 ***************************************************************************************************



                                            ***************************
                                            *  C O M P U T A T I O N  *
                                            ***************************
  

 Number of elements of the density matrix on this node (used, total):      1378      1378



 ===========================================
 Numerical Integration : Fuzzy Cells (Becke)
 ===========================================
  
 Becke grid quality: VERYGOOD       
  
 Lebedev angular grid order:             min:  13 max:  41
 Nr. of radial points:                   min:  81 max:  81

 Total nr. of points:         81
 Nr. of blocks:                1
 Block length:                81
 Nr. of dummy points:          0


 Test of Precision of the Numerical Integration Grid
 ===================================================

 Integral of the Total Core Density:                   0.00000000000000



 ========================
 Density Fitting (zlmFit)
 ========================
  
 ZlmFit Fit Quality: VERYGOOD       
  
 Max L-expansion:                        min:   0 max:   0
 Nr. of radial interpolation points:     min: 190 max: 190



 ======================
 RI Hartree-Fock Scheme
 ======================
  
 Fit Set Quality     : NORMAL
 Integration Quality : NORMAL
 Threshold Quality   : NORMAL
 Response Quality    : DEFAULT
 Is Range Separated  :  F
 
 RIHartreeFock Dependency: number of modified vectors:           0



 =====
 S C F  ***  ScaSCF  ***
 =====
  

 CYCLE    1
 SCF Error: norm([F,P])=      0.000000000000, max([F,P])=      0.000000000000
 orbitals (Q,E):
 ---------------
 S :1...8            ( 2.00   -24.5000)  ( 2.00    -6.1250)  ( 0.00    -2.7202)  ( 0.00    -1.5025)
                     ( 0.00    -0.9350)  ( 0.00     3.4702)  ( 0.00    29.9166)  ( 0.00   227.4336)
 P :1...4            ( 3.00    -6.1098)  ( 0.00    -2.7145)  ( 0.00    -1.4897)  ( 0.00     6.4874)
 D :1...2            ( 0.00    -2.7183)  ( 0.00    -1.4895)
 F :1...2            ( 0.00    -1.5093)  ( 0.00     2.0694)

 CYCLE    2
  SDIIS (wt  0.000):  1.0000 -0.0000
 A-DIIS (wt  1.000):  0.0000  1.0000
  DIIS coefficients:  0.0000  1.0000
 SCF Error: norm([F,P])=      6.858069079917, max([F,P])=      3.410823205037
 orbitals (Q,E):
 ---------------
 S :1...3            ( 2.00   -12.6236)  ( 2.00    -0.1580)  ( 0.00     0.1110)
 P :1...2            ( 3.00     0.2135)  ( 0.00     0.7663)
 D :1...1            ( 0.00     0.8054)
 F :1...1            ( 0.00     1.7000)

 CYCLE    3
  SDIIS (wt  0.000):  0.1323  0.8677
 A-DIIS (wt  1.000):  0.0578  0.9422
  DIIS coefficients:  0.0578  0.9422
 SCF Error: norm([F,P])=      1.805528013539, max([F,P])=      1.462100192492
 orbitals (Q,E):
 ---------------
 S :1...3            ( 2.00   -17.4357)  ( 2.00    -1.7726)  ( 0.00    -0.0646)
 P :1...2            ( 3.00    -0.9379)  ( 0.00     0.0278)
 D :1...1            ( 0.00     0.3401)
 F :1...1            ( 0.00     1.1846)

 CYCLE    4
  SDIIS (wt  0.000): -0.0458  0.3022  0.7436
 A-DIIS (wt  1.000):  0.0000  0.0107  0.9893
  DIIS coefficients:  0.0000  0.0107  0.9893
 SCF Error: norm([F,P])=      1.116160849415, max([F,P])=      0.487068076998
 orbitals (Q,E):
 ---------------
 S :1...3            ( 2.00   -14.9795)  ( 2.00    -0.7525)  ( 0.00     0.0918)
 P :1...2            ( 3.00    -0.0254)  ( 0.00     0.4062)
 D :1...1            ( 0.00     0.7391)
 F :1...1            ( 0.00     1.6281)

 CYCLE    5
  SDIIS (wt  0.000): -0.0070 -0.1087  0.2863  0.8293
 A-DIIS (wt  1.000):  0.0000  0.0000  0.0534  0.9466
  DIIS coefficients:  0.0000  0.0000  0.0534  0.9466
 SCF Error: norm([F,P])=      0.532412429757, max([F,P])=      0.301920773808
 orbitals (Q,E):
 ---------------
 S :1...3            ( 2.00   -16.2479)  ( 2.00    -1.2146)  ( 0.00     0.0637)
 P :1...2            ( 3.00    -0.4120)  ( 0.00     0.2737)
 D :1...1            ( 0.00     0.6057)
 F :1...1            ( 0.00     1.4813)

 CYCLE    6
  SDIIS (wt  0.000):  0.0009 -0.0017 -0.1437  0.1963  0.9482
 A-DIIS (wt  1.000):  0.0000  0.0000  0.0000  0.0000  1.0000
  DIIS coefficients:  0.0000  0.0000  0.0000  0.0000  1.0000
 SCF Error: norm([F,P])=      0.264924053911, max([F,P])=      0.133397890053
 orbitals (Q,E):
 ---------------
 S :1...3            ( 2.00   -15.6065)  ( 2.00    -0.9606)  ( 0.00     0.0843)
 P :1...2            ( 3.00    -0.1960)  ( 0.00     0.3514)
 D :1...1            ( 0.00     0.6910)
 F :1...1            ( 0.00     1.5761)

 CYCLE    7
  SDIIS (wt  0.325):  0.0003  0.0018 -0.0173 -0.0808  0.3002  0.7958
 A-DIIS (wt  0.675):  0.0000  0.0000  0.0000  0.0000  0.0153  0.9847
  DIIS coefficients:  0.0001  0.0006 -0.0056 -0.0263  0.1080  0.9233
 SCF Error: norm([F,P])=      0.128082999438, max([F,P])=      0.067803447859
 orbitals (Q,E):
 ---------------
 S :1...3            ( 2.00   -15.8952)  ( 2.00    -1.0660)  ( 0.00     0.0778)
 P :1...2            ( 3.00    -0.2865)  ( 0.00     0.3220)
 D :1...1            ( 0.00     0.6594)
 F :1...1            ( 0.00     1.5414)

 CYCLE    8
  SDIIS (wt  0.777): -0.0001  0.0004  0.0049  0.0004 -0.1383  0.1016  1.0310
 A-DIIS (wt  0.223):  0.0000  0.0000  0.0000  0.0000  0.0000  0.0000  1.0000
  DIIS coefficients: -0.0000  0.0003  0.0038  0.0003 -0.1074  0.0789  1.0241
 SCF Error: norm([F,P])=      0.043861078952, max([F,P])=      0.023105900292
 orbitals (Q,E):
 ---------------
 S :1...3            ( 2.00   -15.8147)  ( 2.00    -1.0352)  ( 0.00     0.0800)
 P :1...2            ( 3.00    -0.2602)  ( 0.00     0.3308)
 D :1...1            ( 0.00     0.6692)
 F :1...1            ( 0.00     1.5522)

 CYCLE    9
  SDIIS (wt  0.986):  0.0000 -0.0000 -0.0000  0.0031  0.0013 -0.0529 -0.0141  1.0626
 A-DIIS (wt  0.014):  0.0000  0.0000  0.0000  0.0000  0.0000  0.0000  0.0000  1.0000
  DIIS coefficients:  0.0000 -0.0000 -0.0000  0.0031  0.0013 -0.0522 -0.0139  1.0618
 SCF Error: norm([F,P])=      0.004614681617, max([F,P])=      0.002381097927
 orbitals (Q,E):
 ---------------
 S :1...3            ( 2.00   -15.8227)  ( 2.00    -1.0381)  ( 0.00     0.0798)
 P :1...2            ( 3.00    -0.2628)  ( 0.00     0.3300)
 D :1...1            ( 0.00     0.6684)
 F :1...1            ( 0.00     1.5512)

 CYCLE   10
  SDIIS (wt  1.000): -0.0000  0.0000  0.0000 -0.0003 -0.0007  0.0069  0.0047 -0.1402  1.1296
  DIIS coefficients: -0.0000  0.0000  0.0000 -0.0003 -0.0007  0.0069  0.0047 -0.1402  1.1296
 SCF Error: norm([F,P])=      0.000040638938, max([F,P])=      0.000022957438
 orbitals (Q,E):
 ---------------
 S :1...3            ( 2.00   -15.8227)  ( 2.00    -1.0381)  ( 0.00     0.0798)
 P :1...2            ( 3.00    -0.2628)  ( 0.00     0.3300)
 D :1...1            ( 0.00     0.6684)
 F :1...1            ( 0.00     1.5512)

 CYCLE   11
  SDIIS (wt  1.000): -0.0000  0.0000  0.0000 -0.0000 -0.0003  0.0001  0.0066 -0.1080  1.1017
  DIIS coefficients: -0.0000  0.0000  0.0000 -0.0000 -0.0003  0.0001  0.0066 -0.1080  1.1017
 SCF Error: norm([F,P])=      0.000001240977, max([F,P])=      0.000000776804
 orbitals (Q,E):
 ---------------
 S :1...3            ( 2.00   -15.8227)  ( 2.00    -1.0381)  ( 0.00     0.0798)
 P :1...2            ( 3.00    -0.2628)  ( 0.00     0.3300)
 D :1...1            ( 0.00     0.6684)
 F :1...1            ( 0.00     1.5512)

 CYCLE   12
  SDIIS (wt  1.000): -0.0000  0.0000  0.0000 -0.0001 -0.0002 -0.0259  1.0262
  DIIS coefficients: -0.0000  0.0000  0.0000 -0.0001 -0.0002 -0.0259  1.0262
 SCF Error: norm([F,P])=      0.000000039102, max([F,P])=      0.000000024379
 orbitals (Q,E):
 ---------------
 S :1...3            ( 2.00   -15.8227)  ( 2.00    -1.0381)  ( 0.00     0.0798)
 P :1...2            ( 3.00    -0.2628)  ( 0.00     0.3300)
 D :1...1            ( 0.00     0.6684)
 F :1...1            ( 0.00     1.5512)

 CYCLE   13
  SDIIS (wt  1.000):  0.0000  0.0000  0.0008 -0.0573  1.0565
  DIIS coefficients:  0.0000  0.0000  0.0008 -0.0573  1.0565
 SCF Error: norm([F,P])=      0.000000001287, max([F,P])=      0.000000000907
 orbitals (Q,E):
 ---------------
 S :1...3            ( 2.00   -15.8227)  ( 2.00    -1.0381)  ( 0.00     0.0798)
 P :1...2            ( 3.00    -0.2628)  ( 0.00     0.3300)
 D :1...1            ( 0.00     0.6684)
 F :1...1            ( 0.00     1.5512)

 SCF CONVERGED

 CYCLE   14
1
 ***************************************************************************************************



                                                *******************
                                                *  R E S U L T S  *
                                                *******************
  
  
 Hartree-Fock exchange energy:   -5.93252289367239     
 *** Setting up for NEW gradients in Focky
 *** Using FIT density in Focky

 Orbital Energies, per Irrep and Spin:
 ======================================
                        Occup              E (au)              E (eV)       Diff (eV) with prev. cycle
                        -----      --------------------        ------       --------------------------
 S
               1        2.000     -0.15822658526972E+02      -430.556               1.99E-09
               2        2.000     -0.10380675541185E+01       -28.247               1.24E-09
               3        0.000      0.79827351151184E-01         2.172
               4        0.000      0.58389746696925E+00        15.889
               5        0.000      0.25987302268976E+01        70.715
               6        0.000      0.10023606282431E+02       272.756
               7        0.000      0.39954974698511E+02      1087.230
               8        0.000      0.24142543533115E+03      6569.520
 P
               1        3.000     -0.26278012108936E+00        -7.151               6.96E-10
               2        0.000      0.32999513086438E+00         8.980
               3        0.000      0.20856323546379E+01        56.753
               4        0.000      0.15293202511378E+02       416.149
 D
               1        0.000      0.66836037998798E+00        18.187
               2        0.000      0.27861318755666E+01        75.815
 F
               1        0.000      0.15512340528073E+01        42.211
               2        0.000      0.75494880984650E+01       205.432


 Partially Occupied:
               1 P                -0.26278012108936E+00
  
 HOMO :        2 S                -0.10380675541185E+01
 LUMO :        3 S                 0.79827351151184E-01
  


 Orbital Energies, all Irreps
 ========================================

 Irrep        no.  (spin)   Occup              E (au)                E (eV)
 ---------------------------------------------------------------------------
 S             1             2.00       -0.15822658526972E+02      -430.5564
 S             2             2.00       -0.10380675541185E+01       -28.2473
 P             1             3.00       -0.26278012108936E+00        -7.1506
 S             3             0.00        0.79827351151184E-01         2.1722
 P             2             0.00        0.32999513086438E+00         8.9796
 S             4             0.00        0.58389746696925E+00        15.8887
 D             1             0.00        0.66836037998798E+00        18.1870
 F             1             0.00        0.15512340528073E+01        42.2112
 P             3             0.00        0.20856323546379E+01        56.7529
 S             5             0.00        0.25987302268976E+01        70.7150
 D             2             0.00        0.27861318755666E+01        75.8145
 F             2             0.00        0.75494880984650E+01       205.4320
 S             6             0.00        0.10023606282431E+02       272.7562
 P             4             0.00        0.15293202511378E+02       416.1492
 S             7             0.00        0.39954974698511E+02      1087.2302
 S             8             0.00        0.24142543533115E+03      6569.5204


 All Electron Calculation, thus no Orbital Energies of the Core Orbitals are calculated



 =======================================
 M U L L I K E N   P O P U L A T I O N S
 =======================================
  
 The survey below gives for each atom:
 a) the total charge (Z minus electrons)
 b) the net spin polarization (nr of electrons spin-A minus spin-B)
 c) for each spin the atomic electron valence density (integrated) per L-value.

 Atom              Charge    Spin density          S         P         D         F
 ----              ------    ------------       ------    ------    ------    ------
 1 N               0.0000                       4.0000    3.0000    0.0000    0.0000

 Populations of individual BAS functions
 ----------------------------------------
 1 N            0.0379  1.3360  0.0679  0.4766  0.3721  1.2765  0.4360 -0.0031  0.0077  0.0077
                0.0077  0.2272  0.2272  0.2272  0.4784  0.4784  0.4784  0.2867  0.2867  0.2867
                0.0000  0.0000  0.0000  0.0000  0.0000  0.0000  0.0000  0.0000  0.0000  0.0000
                0.0000  0.0000  0.0000  0.0000  0.0000  0.0000  0.0000  0.0000  0.0000  0.0000
                0.0000  0.0000  0.0000  0.0000  0.0000  0.0000  0.0000  0.0000  0.0000  0.0000
                0.0000  0.0000

 Gross Charges per Atom (Z minus electrons)
 ==========================================
             0.0000
 Net Total:  0.00000000



 =======================================================================
 Electrostatic potential at the Nuclei due to electrons and other nuclei
 =======================================================================
  
         Atom                  Potential
         ----                  ---------
     1)   N                  18.14970771
 
 
 ========================
 No memory problems found
 ========================
 
 Maximum number of active allocate calls:         454
 
 *******************************************************************************

                             A D F   E X I T
 NORMAL TERMINATION



 =================
 Timing Statistics
 =================
  
 Total Used :                     CPU=        0.80      System=        0.06     Elapsed=        1.11

 Calls  Section                     ( Mean, Percentage )
 ---------------------------------------------------------------------------------------------------
     3  ><      ................      0.00    0.30             0.00    0.44             0.00    0.24
     1  INIT    ................      0.03    4.34             0.00    3.32             0.29   25.72
     1  GEOMET  ................      0.02    2.89             0.02   43.97             0.05    4.33
     1  INPUTA  ................      0.00    0.37             0.00    1.65             0.00    0.35
     1  MAINSY  ................      0.01    1.50             0.00    0.07             0.01    1.09
     1  SYMFIT  ................      0.00    0.11             0.00    0.00             0.00    0.08
     1  CORORT  ................      0.00    0.09             0.00    0.00             0.00    0.06
     1  SYMORB  ................      0.00    0.09             0.00    0.00             0.00    0.06
     1  FITINT  ................      0.01    1.55             0.00    0.00             0.01    1.12
     1  CLSMAT  ................      0.00    0.14             0.00    0.00             0.00    0.10
     1  ORTHON  ................      0.01    0.63             0.00    0.00             0.01    0.45
     1  GENPT   ................      0.02    2.20             0.00    0.00             0.02    1.58
     1  PTBAS   ................      0.00    0.45             0.00    0.00             0.00    0.32
    14  FOCKY   ................      0.04   75.46             0.00   38.42             0.05   56.74
    14  FOCKTR  ................      0.00    1.27             0.00    1.53             0.00    0.99
    14  SDIIS   ................      0.00    3.63             0.00    1.88             0.00    2.71
     1  COREPS  ................      0.02    2.34             0.00    5.31             0.02    1.96
     1  POPAN   ................      0.01    0.91             0.00    0.01             0.01    0.66
     1  DEBYE   ................      0.00    0.19             0.00    0.00             0.00    0.14
     1  EXIT PROCEDURE .........      0.01    1.55             0.00    3.40             0.01    1.29


 Currently Open Files (EXIT00)
 ====================

 Unit    Access Format  Status   Type       Ident (file)
 -------------------------------------------------------
   3      SEQ    FORM   TRANSP  NORMAL      LOGFILE
                                          ( logfile )


 Buffered I/O statistics
 =======================
 Memory available:                     67108864
 Number of records fitting in memory:     16131
 Input :   0.1% of                        46028  *4k bytes
 Output:   8.6% of                         2383  *4k bytes
 Records from serial files evicted:           0
                    others evicted:           0
 Hash table lookups:      92806 with          0 conflicts (  0.00%)

 ***************************************************************************************************
 (LOGFILE)
 <Mar23-2019> <10:00:01>  ADF 2018  RunTime: Mar23-2019 10:00:01  Nodes: 1  Procs: 1
 <Mar23-2019> <10:00:01>  Hydrogen (QZ, all electron, 5S 2P 2D)
 <Mar23-2019> <10:00:01>  RunType   : CREATE
 <Mar23-2019> <10:00:01>  Net Charge: 0 (Nuclei minus Electrons)
 <Mar23-2019> <10:00:01>  Symmetry  : ATOM
  Coordinates
    Atom         X           Y           Z   (Angstrom)
    1.H         0.000000    0.000000    0.000000
 <Mar23-2019> <10:00:02>  >>>> CORORT
 <Mar23-2019> <10:00:02>  >>>> FITINT
 <Mar23-2019> <10:00:02>  >>>> CLSMAT
 <Mar23-2019> <10:00:02>  >>>> ORTHON
 <Mar23-2019> <10:00:02>  >>>> GENPT
 <Mar23-2019> <10:00:02>  Block Length=  64
 <Mar23-2019> <10:00:02>  >>>> PTBAS
 <Mar23-2019> <10:00:02>  >>>> CYCLE
 <Mar23-2019> <10:00:02>  CalcFitR12Fit
 <Mar23-2019> <10:00:02>  CalcFitCoeff
 <Mar23-2019> <10:00:02>              |Error|         MaxErr       Wt(A-DIIS)
 <Mar23-2019> <10:00:02>      1      0.00000000      0.00000000
 <Mar23-2019> <10:00:02>      2      0.09398034      0.08680783
 <Mar23-2019> <10:00:02>      3      0.00816067      0.00672960    100.0
 <Mar23-2019> <10:00:02>      4      0.00130545      0.00094557      0.0
 <Mar23-2019> <10:00:02>      5      0.00013734      0.00010961      0.0
 <Mar23-2019> <10:00:02>      6      0.00000273      0.00000237      0.0
 <Mar23-2019> <10:00:02>      7      0.00000002      0.00000002      0.0
 <Mar23-2019> <10:00:02>      8      0.00000000      0.00000000      0.0
 <Mar23-2019> <10:00:02>  SCF converged
 <Mar23-2019> <10:00:02>      9      0.00000000      0.00000000      0.0
 <Mar23-2019> <10:00:02>  >>>> POPAN
 <Mar23-2019> <10:00:02>  >>>> DEBYE
 <Mar23-2019> <10:00:02>  NORMAL TERMINATION
 <Mar23-2019> <10:00:02>  END
 <Mar23-2019> <10:00:02>  ADF 2018  RunTime: Mar23-2019 10:00:02  Nodes: 1  Procs: 1
 <Mar23-2019> <10:00:02>  Nitrogen (QZ, all electron, 8S 4P 2D 2F)
 <Mar23-2019> <10:00:02>  RunType   : CREATE
 <Mar23-2019> <10:00:02>  Net Charge: 0 (Nuclei minus Electrons)
 <Mar23-2019> <10:00:02>  Symmetry  : ATOM
  Coordinates
    Atom         X           Y           Z   (Angstrom)
    1.N         0.000000    0.000000    0.000000
 <Mar23-2019> <10:00:02>  >>>> CORORT
 <Mar23-2019> <10:00:02>  >>>> FITINT
 <Mar23-2019> <10:00:02>  >>>> CLSMAT
 <Mar23-2019> <10:00:02>  >>>> ORTHON
 <Mar23-2019> <10:00:02>  >>>> GENPT
 <Mar23-2019> <10:00:02>  Block Length=  81
 <Mar23-2019> <10:00:02>  >>>> PTBAS
 <Mar23-2019> <10:00:02>  >>>> CYCLE
 <Mar23-2019> <10:00:03>  CalcFitR12Fit
 <Mar23-2019> <10:00:03>  CalcFitCoeff
 <Mar23-2019> <10:00:03>              |Error|         MaxErr       Wt(A-DIIS)
 <Mar23-2019> <10:00:03>      1      0.00000000      0.00000000
 <Mar23-2019> <10:00:03>      2      6.85806908      3.41082321    100.0
 <Mar23-2019> <10:00:03>      3      1.80552801      1.46210019    100.0
 <Mar23-2019> <10:00:03>      4      1.11616085      0.48706808    100.0
 <Mar23-2019> <10:00:03>      5      0.53241243      0.30192077    100.0
 <Mar23-2019> <10:00:03>      6      0.26492405      0.13339789    100.0
 <Mar23-2019> <10:00:03>      7      0.12808300      0.06780345     67.5
 <Mar23-2019> <10:00:03>      8      0.04386108      0.02310590     22.3
 <Mar23-2019> <10:00:03>      9      0.00461468      0.00238110      1.4
 <Mar23-2019> <10:00:03>     10      0.00004064      0.00002296      0.0
 <Mar23-2019> <10:00:03>     11      0.00000124      0.00000078      0.0
 <Mar23-2019> <10:00:03>     12      0.00000004      0.00000002      0.0
 <Mar23-2019> <10:00:03>     13      0.00000000      0.00000000      0.0
 <Mar23-2019> <10:00:03>  SCF converged
 <Mar23-2019> <10:00:03>     14      0.00000000      0.00000000      0.0
 <Mar23-2019> <10:00:03>  >>>> POPAN
 <Mar23-2019> <10:00:03>  >>>> DEBYE
 <Mar23-2019> <10:00:03>  NORMAL TERMINATION
 <Mar23-2019> <10:00:03>  END
 
Create C   file=QZ4P-C
XC
  HartreeFock
End
  HartreeFock

 *******************************************************************************
 *                                                                             *
 *  -------------------------------------                                      *
 *   Amsterdam Density Functional  (ADF)         2018                          *
 *  -------------------------------------                                      *
 *                                               r70630 2018-11-24             *
 *                                                                             *
 *                                                                             *
 *                              =================                              *
 *                              |               |                              *
 *                              |     A D F     |                              *
 *                              |               |                              *
 *                              =================                              *
 *                                                                             *
 *                                                                             *
 *   Online information and documentation:  https://www.scm.com/support/       *
 *   E-mail:  support@scm.com   info@scm.com                                   *
 *                                                                             *
 *   Scientific publications using ADF results must be properly referenced     *
 *   See the User Manuals (or the web site) for recommended citations          *
 *   The terms and conditions of the End User License Agreement apply to       *
 *   the use of ADF, https://www.scm.com/license-terms/                        *
 *                                                                             *
 **********************  x86_64_linux_intel / intelmpi  ************************
 
 Licensed to: Mr. Vladimir Konjkov / Florida Institute of Technology / Melbourne / Florida / USA
 SCM User ID: u21173
  
 ADF 2018  RunTime: Mar23-2019 10:00:03  Nodes: 1  Procs: 1

 Temporary files are created in /tmp/kid_0.765914840

 Carbon (QZ, all electron, 7S 4P 2D 2F)



 ===========================
 A T T A C H E D   F I L E S
 ===========================
  
 CREATE - Data File:    QZ4P-C
                        Carbon (QZ, all electron, 7S 4P 2D 2F)



 ===============================
 M O D E L   P A R A M E T E R S
 ===============================
  
 DENSITY FUNCTIONAL POTENTIAL (scf)
    Hybrid:                            HARTREEFOCK                             == Not Default ==

 SPIN  (restricted / unrestr.)
    Molecule:                          Restricted                               

 OTHER ASPECTS
    Relativistic Corrections:          ---                                      

    Nuclear Charge Density Model:      Point Charge Nuclei                      
    Core Treatment:                    Frozen Orbital(s)                        

    Hyperfine or Zeeman Interaction:   ---                                      



 =====================================
 S Y M M E T R Y ,   E L E C T R O N S
 =====================================
  
 Symmetry: ATOM

 Irreducible Representations, including subspecies
 -------------------------------------------------
 S
 P:x  P:y  P:z
 D:z2  D:x2-y2  D:xy  D:xz  D:yz
 F:z3  F:z  F:xyz  F:z2x  F:z2y  F:x  F:y


 Configuration of Valence Electrons
 ==================================

          Occupation Numbers
          -------------------------------------------------
 S        2*2
 P        2
 D        0
 F        0
          -------------------------------------------------

 Total:   6

 Net Charge: 0 (Nuclei minus Electrons)

 Preset values for MO occupations will be applied through SCF cycle no. 1000000
 Thereafter, the program will assign electrons to MOs that are spatially
 similar to the occupied MOs in a "reference" cycle ("KeepOrbitals").
 The reference cycle is always the PREVIOUS cycle: it will evolve with
 the SCF procedure.



 ================================
 (Slater-type)  F U N C T I O N S  ***  (Basis and Fit)  ***
 ================================
  

 Atom Type    1  (C)
 ==============

 Valence Basis Sets:  15
 -----------------------
   1 S   11.400000
   1 S    6.600000
   1 S    4.850000
   2 S    5.900000
   2 S    2.550000
   2 S    1.650000
   2 S    1.160000
   2 P    5.150000
   2 P    2.400000
   2 P    1.300000
   2 P    0.780000
   3 D    2.500000
   3 D    1.500000
   4 F    4.000000
   4 F    2.000000

 Charge Fitting Sets (for the computation of the Coulomb Potential):  32
 -----------------------------------------------------------------------
   1 S   22.800000
   1 S   17.350000
   1 S   13.200000
   1 S    8.790000
   2 S   10.830000
   2 S    7.910000
   2 S    5.780000
   2 S    4.220000
   3 S    4.510000
   3 S    3.460000
   3 S    2.650000
   3 S    2.030000
   3 S    1.560000
   2 P   11.750000
   2 P    7.920000
   2 P    5.330000
   3 P    5.270000
   3 P    3.780000
   3 P    2.710000
   3 P    1.940000
   3 D   10.300000
   3 D    6.750000
   3 D    4.430000
   4 D    3.860000
   4 D    2.660000
   4 F   10.600000
   4 F    6.560000
   4 F    4.060000
   5 F    3.160000
   5 G    9.150000
   5 G    5.040000
   5 G    2.780000


 BAS: List of all Elementary Cartesian Basis Functions
 =====================================================

 The numbering in the list below (to the right of the function characteristics) is referred
 to in print-outs of MO eigenvectors and Mulliken populations in the BAS representation
 (as contrasted to the SFO representation).

 Notes:
 1. The functions are characterized by a polynomial prefactor (powers of x,y,z and r) and
    an exponential decay factor alpha.
 2. Since the basis sets are specific for an atom TYPE, the individual functions occur on
    all atoms of that type.
 3. The word 'Core' in the left margin signals that it is a Core Function (CF) : not a
    degree of freedom in the valence set, but only used to ensure orthogonalization of
    the other valence basis functions on the frozen Core Orbitals.


 (power of) X  Y  Z  R     Alpha  on Atom
            ==========     =====     ==========

 C                                    1
                                  ---------------------------------------------------------------------------
            0  0  0  0    11.400      1
            0  0  0  0     6.600      2
            0  0  0  0     4.850      3
            0  0  0  1     5.900      4
            0  0  0  1     2.550      5
            0  0  0  1     1.650      6
            0  0  0  1     1.160      7
            1  0  0  0     5.150      8
            0  1  0  0     5.150      9
            0  0  1  0     5.150     10
            1  0  0  0     2.400     11
            0  1  0  0     2.400     12
            0  0  1  0     2.400     13
            1  0  0  0     1.300     14
            0  1  0  0     1.300     15
            0  0  1  0     1.300     16
            1  0  0  0     0.780     17
            0  1  0  0     0.780     18
            0  0  1  0     0.780     19
            2  0  0  0     2.500     20
            1  1  0  0     2.500     21
            1  0  1  0     2.500     22
            0  2  0  0     2.500     23
            0  1  1  0     2.500     24
            0  0  2  0     2.500     25
            2  0  0  0     1.500     26
            1  1  0  0     1.500     27
            1  0  1  0     1.500     28
            0  2  0  0     1.500     29
            0  1  1  0     1.500     30
            0  0  2  0     1.500     31
            3  0  0  0     4.000     32
            2  1  0  0     4.000     33
            2  0  1  0     4.000     34
            1  2  0  0     4.000     35
            1  1  1  0     4.000     36
            1  0  2  0     4.000     37
            0  3  0  0     4.000     38
            0  2  1  0     4.000     39
            0  1  2  0     4.000     40
            0  0  3  0     4.000     41
            3  0  0  0     2.000     42
            2  1  0  0     2.000     43
            2  0  1  0     2.000     44
            1  2  0  0     2.000     45
            1  1  1  0     2.000     46
            1  0  2  0     2.000     47
            0  3  0  0     2.000     48
            0  2  1  0     2.000     49
            0  1  2  0     2.000     50
            0  0  3  0     2.000     51

 Total number of charge fitting functions (nprimf)       149
 Total number of Cartesian basis functions (naos)         51
 Total number of Cartesian core functions  (ncos)          0



 BAS: List of all Elementary Cartesian Basis Functions
 =====================================================

 The numbering in the list below (to the right of the function characteristics) is referred
 to in print-outs of MO eigenvectors and Mulliken populations in the BAS representation
 (as contrasted to the SFO representation).

 Notes:
 1. The functions are characterized by a polynomial prefactor (powers of x,y,z and r) and
    an exponential decay factor alpha.
 2. Since the basis sets are specific for an atom TYPE, the individual functions occur on
    all atoms of that type.
 3. The word 'Core' in the left margin signals that it is a Core Function (CF) : not a
    degree of freedom in the valence set, but only used to ensure orthogonalization of
    the other valence basis functions on the frozen Core Orbitals.


 (power of) X  Y  Z  R     Alpha  on Atom
            ==========     =====     ==========

 C                                    1
                                  ---------------------------------------------------------------------------
            0  0  0  0    11.400      1
            0  0  0  0     6.600      2
            0  0  0  0     4.850      3
            0  0  0  1     5.900      4
            0  0  0  1     2.550      5
            0  0  0  1     1.650      6
            0  0  0  1     1.160      7
            1  0  0  0     5.150      8
            0  1  0  0     5.150      9
            0  0  1  0     5.150     10
            1  0  0  0     2.400     11
            0  1  0  0     2.400     12
            0  0  1  0     2.400     13
            1  0  0  0     1.300     14
            0  1  0  0     1.300     15
            0  0  1  0     1.300     16
            1  0  0  0     0.780     17
            0  1  0  0     0.780     18
            0  0  1  0     0.780     19
            2  0  0  0     2.500     20
            1  1  0  0     2.500     21
            1  0  1  0     2.500     22
            0  2  0  0     2.500     23
            0  1  1  0     2.500     24
            0  0  2  0     2.500     25
            2  0  0  0     1.500     26
            1  1  0  0     1.500     27
            1  0  1  0     1.500     28
            0  2  0  0     1.500     29
            0  1  1  0     1.500     30
            0  0  2  0     1.500     31
            3  0  0  0     4.000     32
            2  1  0  0     4.000     33
            2  0  1  0     4.000     34
            1  2  0  0     4.000     35
            1  1  1  0     4.000     36
            1  0  2  0     4.000     37
            0  3  0  0     4.000     38
            0  2  1  0     4.000     39
            0  1  2  0     4.000     40
            0  0  3  0     4.000     41
            3  0  0  0     2.000     42
            2  1  0  0     2.000     43
            2  0  1  0     2.000     44
            1  2  0  0     2.000     45
            1  1  1  0     2.000     46
            1  0  2  0     2.000     47
            0  3  0  0     2.000     48
            0  2  1  0     2.000     49
            0  1  2  0     2.000     50
            0  0  3  0     2.000     51
1
 ***************************************************************************************************



                                              ***********************
                                              *  T E C H N I C A L  *
                                              ***********************
  



 =============================================================
 P A R A L L E L I Z A T I O N  and  V E C T O R I Z A T I O N
 =============================================================
  
 Nr of parallel processes:                                1
 Maximum vector length in NumInt loops:                 128

 IO buffersize (Mb):                                     64.000000



 =====================
 S C F   U P D A T E S
 =====================
  
 Max. nr. of cycles:                               300
 Convergence criterion:                              0.0000000100
   secondary criterion:                              0.0000000100

 Mix parameter (when DIIS does not apply):           0.2000000000
 Special mix parameter for the first cycle:          1.0000000000
 Mixed ADIIS+DIIS will be used
    Max number of expansion vectors:                10
    Pure ADIIS when Max([F,P]) is above              0.1000000000
    Pure DIIS when Max([F,P]) is below               0.0010000000
 Automatic ElectronSmearing (in case of problematic SCF convergence) disabled



 =================
 P R E C I S I O N  ***  (General: NumInt, NeglectFunctionTails, ...)  ***
 =================
  

 NumInt:           Target precision:                12.0000000000
 -------           Initial precision:               10.0000000000
                   Min. precision (optimization):   10.0000000000

 Neglect Functions:          Basis functions:        0.1000000000E-13
 ------------------          Fit functions:          0.1000000000E-13



 ===========================
 L I N E A R   S C A L I N G
 ===========================
  

 Cut-off radii density fit:                        0.1000000000E-97
 Overlap cut-off criterion AO matrix elements:     0.1000000000E-97
 Cut-offs for Coulomb potential and fitted density:0.1000000000E-97
 Cut-off criterion for Coulomb multipole terms:    0.1000000000E-97
 Progressive Convergence parameter:                 0.000000000    
1
 ***************************************************************************************************



                                            ***************************
                                            *  C O M P U T A T I O N  *
                                            ***************************
  

 Number of elements of the density matrix on this node (used, total):      1326      1326



 ===========================================
 Numerical Integration : Fuzzy Cells (Becke)
 ===========================================
  
 Becke grid quality: VERYGOOD       
  
 Lebedev angular grid order:             min:  13 max:  41
 Nr. of radial points:                   min:  81 max:  81

 Total nr. of points:         81
 Nr. of blocks:                1
 Block length:                81
 Nr. of dummy points:          0


 Test of Precision of the Numerical Integration Grid
 ===================================================

 Integral of the Total Core Density:                   0.00000000000000



 ========================
 Density Fitting (zlmFit)
 ========================
  
 ZlmFit Fit Quality: VERYGOOD       
  
 Max L-expansion:                        min:   0 max:   0
 Nr. of radial interpolation points:     min: 170 max: 170



 ======================
 RI Hartree-Fock Scheme
 ======================
  
 Fit Set Quality     : NORMAL
 Integration Quality : NORMAL
 Threshold Quality   : NORMAL
 Response Quality    : DEFAULT
 Is Range Separated  :  F
 
 RIHartreeFock Dependency: number of modified vectors:           1



 =====
 S C F  ***  ScaSCF  ***
 =====
  

 CYCLE    1
 SCF Error: norm([F,P])=      0.000000000000, max([F,P])=      0.000000000000
 orbitals (Q,E):
 ---------------
 S :1...7            ( 2.00   -18.0000)  ( 2.00    -4.4996)  ( 0.00    -1.9994)  ( 0.00    -1.1079)
                     ( 0.00     1.8337)  ( 0.00    20.8417)  ( 0.00   166.7024)
 P :1...4            ( 2.00    -4.4798)  ( 0.00    -1.9842)  ( 0.00    -1.0786)  ( 0.00     4.0356)
 D :1...2            ( 0.00    -1.9859)  ( 0.00    -0.8885)
 F :1...2            ( 0.00    -1.0324)  ( 0.00     3.0925)

 CYCLE    2
  SDIIS (wt  0.000):  1.0000 -0.0000
 A-DIIS (wt  1.000):  0.0000  1.0000
  DIIS coefficients:  0.0000  1.0000
 SCF Error: norm([F,P])=      4.741161936637, max([F,P])=      3.355015201419
 orbitals (Q,E):
 ---------------
 S :1...3            ( 2.00    -9.2189)  ( 2.00    -0.1500)  ( 0.00     0.3188)
 P :1...2            ( 2.00     0.1487)  ( 0.00     0.5567)
 D :1...1            ( 0.00     0.7975)
 F :1...1            ( 0.00     1.6911)

 CYCLE    3
  SDIIS (wt  0.000):  0.1025  0.8975
 A-DIIS (wt  1.000):  0.0000  1.0000
  DIIS coefficients:  0.0000  1.0000
 SCF Error: norm([F,P])=      0.940892803841, max([F,P])=      0.654161152899
 orbitals (Q,E):
 ---------------
 S :1...3            ( 2.00   -12.4905)  ( 2.00    -1.2281)  ( 0.00     0.0488)
 P :1...2            ( 2.00    -0.5150)  ( 0.00     0.0539)
 D :1...1            ( 0.00     0.3748)
 F :1...1            ( 0.00     1.2102)

 CYCLE    4
  SDIIS (wt  0.000): -0.0237  0.2890  0.7347
 A-DIIS (wt  1.000):  0.0000  0.0000  1.0000
  DIIS coefficients:  0.0000  0.0000  1.0000
 SCF Error: norm([F,P])=      0.518909643760, max([F,P])=      0.316735519712
 orbitals (Q,E):
 ---------------
 S :1...3            ( 2.00   -10.9953)  ( 2.00    -0.6114)  ( 0.00     0.2740)
 P :1...2            ( 2.00     0.0016)  ( 0.00     0.2865)
 D :1...1            ( 0.00     0.7060)
 F :1...1            ( 0.00     1.5907)

 CYCLE    5
  SDIIS (wt  0.000): -0.0034 -0.0889  0.2709  0.8214
 A-DIIS (wt  1.000):  0.0000  0.0000  0.0024  0.9976
  DIIS coefficients:  0.0000  0.0000  0.0024  0.9976
 SCF Error: norm([F,P])=      0.241474702506, max([F,P])=      0.162084077781
 orbitals (Q,E):
 ---------------
 S :1...3            ( 2.00   -11.7480)  ( 2.00    -0.8951)  ( 0.00     0.1958)
 P :1...2            ( 2.00    -0.2185)  ( 0.00     0.1959)
 D :1...1            ( 0.00     0.5767)
 F :1...1            ( 0.00     1.4436)

 CYCLE    6
  SDIIS (wt  0.171):  0.0007 -0.0008 -0.1358  0.2194  0.9165
 A-DIIS (wt  0.829):  0.0000  0.0000  0.0000  0.0000  1.0000
  DIIS coefficients:  0.0001 -0.0001 -0.0232  0.0374  0.9858
 SCF Error: norm([F,P])=      0.128870180686, max([F,P])=      0.083112648844
 orbitals (Q,E):
 ---------------
 S :1...3            ( 2.00   -11.3815)  ( 2.00    -0.7466)  ( 0.00     0.2428)
 P :1...2            ( 2.00    -0.1002)  ( 0.00     0.2451)
 D :1...1            ( 0.00     0.6507)
 F :1...1            ( 0.00     1.5284)

 CYCLE    7
  SDIIS (wt  0.689):  0.0002  0.0015 -0.0080 -0.0792  0.2157  0.8698
 A-DIIS (wt  0.311):  0.0000  0.0000  0.0000  0.0000  0.0000  1.0000
  DIIS coefficients:  0.0001  0.0010 -0.0055 -0.0546  0.1487  0.9102
 SCF Error: norm([F,P])=      0.048230792588, max([F,P])=      0.031758262102
 orbitals (Q,E):
 ---------------
 S :1...3            ( 2.00   -11.5015)  ( 2.00    -0.7918)  ( 0.00     0.2301)
 P :1...2            ( 2.00    -0.1363)  ( 0.00     0.2310)
 D :1...1            ( 0.00     0.6296)
 F :1...1            ( 0.00     1.5044)

 CYCLE    8
  SDIIS (wt  0.956): -0.0000  0.0001  0.0035  0.0191 -0.1077 -0.1436  1.2287
 A-DIIS (wt  0.044):  0.0000  0.0000  0.0000  0.0000  0.0000  0.0000  1.0000
  DIIS coefficients: -0.0000  0.0001  0.0033  0.0183 -0.1030 -0.1374  1.2187
 SCF Error: norm([F,P])=      0.008005573984, max([F,P])=      0.005312503259
 orbitals (Q,E):
[...]
 SIGMA        29             0.00        0.77239726219021E+01       210.1800
 PI           17             0.00        0.78050519894982E+01       212.3863
 PHI           4             0.00        0.80421767234325E+01       218.8388
 SIGMA        30             0.00        0.82730599161294E+01       225.1214
 DELTA        10             0.00        0.92990698412982E+01       253.0406
 SIGMA        31             0.00        0.93692300661443E+01       254.9497
 PI           18             0.00        0.96003278468168E+01       261.2382
 SIGMA        32             0.00        0.10877018181588E+02       295.9787
 SIGMA        33             0.00        0.12146357197903E+02       330.5192
 PI           19             0.00        0.13067863334180E+02       355.5947
 SIGMA        34             0.00        0.17537321574956E+02       477.2148
 PI           20             0.00        0.19273871900808E+02       524.4687
 SIGMA        35             0.00        0.20140683914684E+02       548.0559
 SIGMA        36             0.00        0.21798567416262E+02       593.1692
 SIGMA        37             0.00        0.31717291676404E+02       863.0714
 SIGMA        38             0.00        0.42636632770579E+02      1160.2018
 SIGMA        39             0.00        0.18749684123965E+03      5102.0486
 SIGMA        40             0.00        0.25026480317896E+03      6810.0518


 All Electron Calculation, thus no Orbital Energies of the Core Orbitals are calculated



 =======================
 T O T A L   E N E R G Y  ***  (contributions)  ***
 =======================
  

*** Note ***

The requirements to the integration accuracy are somewhat higher than for bond energies.
One can expect an accuracy of roughly (accint-2) decimal places, where accint is the
general integration accuracy parameter.
The Coulomb energy is the sum of the Hartree energy (electron-electron Coulomb interaction)
and the nuclear-electron attraction energy. It includes the correction for the first-order
fit error in the Hartree energy.
The potential energy is the sum of the nuclear repulsion energy, the Coulomb energy,
and the exchange-correlation energy.

Kinetic energy           =           92.713476494265

Nuclear repulsion energy =           23.861936164686
Coulomb energy           =         -197.447597660142
XC energy                =          -12.041918913417
Total potential energy   =         -185.627580408874

----------------------------------------------------
Total energy             =          -92.914103914609
Virial theorem           =            2.002163951002
----------------------------------------------------

 Gross Charges per Atom (Z minus electrons)
 ==========================================
             0.4738   -0.0260   -0.4478
 Net Total:  0.00000000



 =================================================================
 M U L T I P O L E   D E R I V E D   C H A R G E   A N A L Y S I S
 =================================================================

 This charge analysis uses the atomic multipoles (obtained from the fitted density) up to some level X,
 and reconstructs these multipoles exactly (up to level X) by distributing charges over all atoms.
 This is achieved by using Lagrange multipliers and a weight function to keep the multipoles local.

 Dummy atoms can be included (by setting INCDUM in MDC-block to 1) to obtain a fractional charge.
 This is generally useful and necessary only for small symmetrical molecules, when there are not
 enough degrees of freedom to reconstruct the multipoles.

 Since the atomic multipoles are reconstructed up to level X,
 the molecular multipoles are represented also up to level X.
 The recommended level is to reconstruct up to quadrupole : -> MDC-q charges.

 See: M. Swart, P.Th. van Duijnen, J.G. Snijders, J.Comput.Chem., (2001), p. 79-88.

 ------------------------------------------------------------- 
 Atomic electronic multipole moments from SCF equations (a.u.)
 ------------------------------------------------------------- 

   atom        charge        dip-x     dip-y     dip-z      quad-xx   quad-xy   quad-xz   quad-yy   quad-yz   quad-zz
 --------------------------------------------------------------------------------------------------------------------
    1 H      0.050751    -0.000000  0.000000 -0.083701    -0.111563  0.000000 -0.000000 -0.111563  0.000000  0.223126
    2 C      0.180370     0.000000 -0.000000 -0.213802    -0.446618  0.000000 -0.000000 -0.446618 -0.000000  0.893236
    3 N     -0.231121     0.000000  0.000000 -0.390718    -0.263965  0.000000 -0.000000 -0.263965 -0.000000  0.527930

 --------------------------------------- 
 Multipole derived atomic charges (a.u.)
 --------------------------------------- 

 The MDC-m charges are just the Monopole terms in the multipole expansion, while for the MDC-d charges
 also the Dipoles are reconstructed. The usually preferred charges are the MDC-q charges.
 These reconstruct the Monopoles, Dipoles and Quadrupoles (both atomic AND molecular).

        Atom    Level:     MDC-m        MDC-d        MDC-q
 ---------------------------------------------------------
     1     H            0.050751     0.170073     0.260688
     2     C            0.180370     0.265907     0.091697
     3     N           -0.231121    -0.435980    -0.352386

 ------------------------------------------------ 
 Average absolute deviations in atomic multipoles
 ------------------------------------------------ 

 Stated here are the average differences between the atomic multipoles
 and the reconstructed atomic multipoles (from the distributed charges).
 If these values are not zero, this means there are not enough degrees of freedom,
 to be able to reconstruct the atomic multipoles. (This usually happens only
 for small and/or highly symmetric molecules). If this is the case, one could add
 dummy atoms as extra point charges (and setting INCDUM in MDC-block to 1).

 Level:                                 MDC-d        MDC-q
 ---------------------------------------------------------
 Charge   (a.u.)                       0.0000       0.0000
 Dipole   (Debye)                      0.0000       0.0000
 Quad.    (a.u.)                       0.1924       0.0000

 --------------------------------------- 
 Represented molecular multipole moments
 --------------------------------------- 

 Given here are the Molecular multipole moments from the atomic charges, and from the Fit Density.
 Note that the atomic charges represent the latter, NOT the ones from the Exact density.

            Q (a.u.)             Dipole moment (Debye)                                          Quadrupole moment (a.u.)
                                 x         y         z              xx        xy        xz        yy        yz        zz
------------------------------------------------------------------------------------------------------------------------
MDC-m         0.0000        0.0000    0.0000   -1.5438          1.6732    0.0000    0.0000    1.6732    0.0000   -3.3463
MDC-d         0.0000        0.0000    0.0000   -3.2931          3.3073    0.0000    0.0000    3.3073    0.0000   -6.6146
MDC-q        -0.0000        0.0000    0.0000   -3.2931          2.9235    0.0000    0.0000    2.9235    0.0000   -5.8471
 
Fit.Dens.     0.0000        0.0000   -0.0000   -3.2931          2.9235    0.0000    0.0000    2.9235    0.0000   -5.8471



 =============
 Dipole Moment  ***  (Debye)  ***
 =============
  
 Vector   :         0.00000000      0.00000000     -3.29309319
 Magnitude:         3.29309319

 This molecular dipole moment is calculated with analytic integration



 =========================================
 Quadrupole Moment (Buckingham convention)  ***  (a.u.)  ***
 =========================================
  
      quad-xx        quad-xy        quad-xz        quad-yy        quad-yz        quad-zz
      2.92354809     0.00000000     0.00000000     2.92354809     0.00000000    -5.84709618

 This molecular quadrupole moment is calculated with analytic integration



 =======================================================================
 Electrostatic potential at the Nuclei due to electrons and other nuclei
 =======================================================================
  
         Atom                  Potential
         ----                  ---------
     1)   H                   0.96145396
     2)   C                  14.68861544
     3)   N                  18.34593642
 
 
 ========================
 No memory problems found
 ========================
 
 Maximum number of active allocate calls:        1075
 
 *******************************************************************************

                             A D F   E X I T
 NORMAL TERMINATION



 =================
 Timing Statistics
 =================
  
 Total Used :                     CPU=       44.93      System=        0.64     Elapsed=       46.23

 Calls  Section                     ( Mean, Percentage )
 ---------------------------------------------------------------------------------------------------
     3  ><      ................      0.00    0.01             0.00    0.00             0.00    0.01
     1  INIT    ................      0.45    1.01             0.01    1.09             0.74    1.61
     1  GEOMET  ................      0.04    0.09             0.03    4.68             0.07    0.15
     1  FRAGM   ................      0.01    0.02             0.01    0.78             0.02    0.05
     1  INPUTA  ................      0.00    0.00             0.00    0.00             0.00    0.00
     1  ATDEN   ................      0.00    0.01             0.00    0.62             0.01    0.02
     1  MAINSY  ................      0.02    0.04             0.00    0.31             0.02    0.04
     1  SYMFIT  ................      0.00    0.00             0.00    0.00             0.00    0.00
     1  CORORT  ................      0.00    0.00             0.00    0.00             0.00    0.00
     1  SYMORB  ................      0.00    0.01             0.00    0.00             0.00    0.01
     1  FITINT  ................      0.02    0.04             0.00    0.15             0.02    0.04
     1  CLSMAT  ................      0.09    0.19             0.03    4.04             0.11    0.24
     1  ORTHON  ................      0.02    0.04             0.00    0.57             0.02    0.05
     1  GENPT   ................      0.14    0.30             0.01    1.92             0.15    0.32
     1  PTBAS   ................      0.18    0.41             0.01    1.02             0.19    0.41
    11  FOCKY   ................      3.71   90.89             0.05   77.96             3.79   90.17
    11  FOCKTR  ................      0.00    0.08             0.00    0.90             0.00    0.09
    11  SDIIS   ................      0.00    0.08             0.00    0.20             0.00    0.08
     1  COREPS  ................      2.67    5.95             0.02    2.34             2.70    5.84
     1  POPAN   ................      0.33    0.73             0.02    3.11             0.36    0.77
     1  DEBYE   ................      0.01    0.01             0.00    0.00             0.01    0.01
     1  EXIT PROCEDURE .........      0.04    0.08             0.00    0.31             0.04    0.08


 Currently Open Files (EXIT00)
 ====================

 Unit    Access Format  Status   Type       Ident (file)
 -------------------------------------------------------
   3      SEQ    FORM   TRANSP  NORMAL      LOGFILE
                                          ( logfile )


 Buffered I/O statistics
 =======================
 Memory available:                     67108864
 Number of records fitting in memory:     16131
 Input :   0.1% of                       146940  *4k bytes
 Output:   3.8% of                        19301  *4k bytes
 Records from serial files evicted:           0
                    others evicted:           0
 Hash table lookups:     370721 with        432 conflicts (  0.12%)

 ***************************************************************************************************
 (LOGFILE)
 <Mar23-2019> <10:00:01>  ADF 2018  RunTime: Mar23-2019 10:00:01  Nodes: 1  Procs: 1
 <Mar23-2019> <10:00:01>  Hydrogen (QZ, all electron, 5S 2P 2D)
 <Mar23-2019> <10:00:01>  RunType   : CREATE
 <Mar23-2019> <10:00:01>  Net Charge: 0 (Nuclei minus Electrons)
 <Mar23-2019> <10:00:01>  Symmetry  : ATOM
  Coordinates
    Atom         X           Y           Z   (Angstrom)
    1.H         0.000000    0.000000    0.000000
 <Mar23-2019> <10:00:02>  >>>> CORORT
 <Mar23-2019> <10:00:02>  >>>> FITINT
 <Mar23-2019> <10:00:02>  >>>> CLSMAT
 <Mar23-2019> <10:00:02>  >>>> ORTHON
 <Mar23-2019> <10:00:02>  >>>> GENPT
 <Mar23-2019> <10:00:02>  Block Length=  64
 <Mar23-2019> <10:00:02>  >>>> PTBAS
 <Mar23-2019> <10:00:02>  >>>> CYCLE
 <Mar23-2019> <10:00:02>  CalcFitR12Fit
 <Mar23-2019> <10:00:02>  CalcFitCoeff
 <Mar23-2019> <10:00:02>              |Error|         MaxErr       Wt(A-DIIS)
 <Mar23-2019> <10:00:02>      1      0.00000000      0.00000000
 <Mar23-2019> <10:00:02>      2      0.09398034      0.08680783
 <Mar23-2019> <10:00:02>      3      0.00816067      0.00672960    100.0
 <Mar23-2019> <10:00:02>      4      0.00130545      0.00094557      0.0
 <Mar23-2019> <10:00:02>      5      0.00013734      0.00010961      0.0
 <Mar23-2019> <10:00:02>      6      0.00000273      0.00000237      0.0
 <Mar23-2019> <10:00:02>      7      0.00000002      0.00000002      0.0
 <Mar23-2019> <10:00:02>      8      0.00000000      0.00000000      0.0
 <Mar23-2019> <10:00:02>  SCF converged
 <Mar23-2019> <10:00:02>      9      0.00000000      0.00000000      0.0
 <Mar23-2019> <10:00:02>  >>>> POPAN
 <Mar23-2019> <10:00:02>  >>>> DEBYE
 <Mar23-2019> <10:00:02>  NORMAL TERMINATION
 <Mar23-2019> <10:00:02>  END
 <Mar23-2019> <10:00:02>  ADF 2018  RunTime: Mar23-2019 10:00:02  Nodes: 1  Procs: 1
 <Mar23-2019> <10:00:02>  Nitrogen (QZ, all electron, 8S 4P 2D 2F)
 <Mar23-2019> <10:00:02>  RunType   : CREATE
 <Mar23-2019> <10:00:02>  Net Charge: 0 (Nuclei minus Electrons)
 <Mar23-2019> <10:00:02>  Symmetry  : ATOM
  Coordinates
    Atom         X           Y           Z   (Angstrom)
    1.N         0.000000    0.000000    0.000000
 <Mar23-2019> <10:00:02>  >>>> CORORT
 <Mar23-2019> <10:00:02>  >>>> FITINT
 <Mar23-2019> <10:00:02>  >>>> CLSMAT
 <Mar23-2019> <10:00:02>  >>>> ORTHON
 <Mar23-2019> <10:00:02>  >>>> GENPT
 <Mar23-2019> <10:00:02>  Block Length=  81
 <Mar23-2019> <10:00:02>  >>>> PTBAS
 <Mar23-2019> <10:00:02>  >>>> CYCLE
 <Mar23-2019> <10:00:03>  CalcFitR12Fit
 <Mar23-2019> <10:00:03>  CalcFitCoeff
 <Mar23-2019> <10:00:03>              |Error|         MaxErr       Wt(A-DIIS)
 <Mar23-2019> <10:00:03>      1      0.00000000      0.00000000
 <Mar23-2019> <10:00:03>      2      6.85806908      3.41082321    100.0
 <Mar23-2019> <10:00:03>      3      1.80552801      1.46210019    100.0
 <Mar23-2019> <10:00:03>      4      1.11616085      0.48706808    100.0
 <Mar23-2019> <10:00:03>      5      0.53241243      0.30192077    100.0
 <Mar23-2019> <10:00:03>      6      0.26492405      0.13339789    100.0
 <Mar23-2019> <10:00:03>      7      0.12808300      0.06780345     67.5
 <Mar23-2019> <10:00:03>      8      0.04386108      0.02310590     22.3
 <Mar23-2019> <10:00:03>      9      0.00461468      0.00238110      1.4
 <Mar23-2019> <10:00:03>     10      0.00004064      0.00002296      0.0
 <Mar23-2019> <10:00:03>     11      0.00000124      0.00000078      0.0
 <Mar23-2019> <10:00:03>     12      0.00000004      0.00000002      0.0
 <Mar23-2019> <10:00:03>     13      0.00000000      0.00000000      0.0
 <Mar23-2019> <10:00:03>  SCF converged
 <Mar23-2019> <10:00:03>     14      0.00000000      0.00000000      0.0
 <Mar23-2019> <10:00:03>  >>>> POPAN
 <Mar23-2019> <10:00:03>  >>>> DEBYE
 <Mar23-2019> <10:00:03>  NORMAL TERMINATION
 <Mar23-2019> <10:00:03>  END
 <Mar23-2019> <10:00:03>  ADF 2018  RunTime: Mar23-2019 10:00:03  Nodes: 1  Procs: 1
 <Mar23-2019> <10:00:03>  Carbon (QZ, all electron, 7S 4P 2D 2F)
 <Mar23-2019> <10:00:03>  RunType   : CREATE
 <Mar23-2019> <10:00:04>  Net Charge: 0 (Nuclei minus Electrons)
 <Mar23-2019> <10:00:04>  Symmetry  : ATOM
  Coordinates
    Atom         X           Y           Z   (Angstrom)
    1.C         0.000000    0.000000    0.000000
 <Mar23-2019> <10:00:04>  >>>> CORORT
 <Mar23-2019> <10:00:04>  >>>> FITINT
 <Mar23-2019> <10:00:04>  >>>> CLSMAT
 <Mar23-2019> <10:00:04>  >>>> ORTHON
 <Mar23-2019> <10:00:04>  >>>> GENPT
 <Mar23-2019> <10:00:04>  Block Length=  81
 <Mar23-2019> <10:00:04>  >>>> PTBAS
 <Mar23-2019> <10:00:04>  >>>> CYCLE
 <Mar23-2019> <10:00:04>  CalcFitR12Fit
 <Mar23-2019> <10:00:04>  CalcFitCoeff
 <Mar23-2019> <10:00:04>              |Error|         MaxErr       Wt(A-DIIS)
 <Mar23-2019> <10:00:04>      1      0.00000000      0.00000000
 <Mar23-2019> <10:00:04>      2      4.74116194      3.35501520    100.0
 <Mar23-2019> <10:00:04>      3      0.94089280      0.65416115    100.0
 <Mar23-2019> <10:00:04>      4      0.51890964      0.31673552    100.0
 <Mar23-2019> <10:00:04>      5      0.24147470      0.16208408    100.0
 <Mar23-2019> <10:00:04>      6      0.12887018      0.08311265     82.9
 <Mar23-2019> <10:00:04>      7      0.04823079      0.03175826     31.1
 <Mar23-2019> <10:00:04>      8      0.00800557      0.00531250      4.4
 <Mar23-2019> <10:00:04>      9      0.00006188      0.00003020      0.0
 <Mar23-2019> <10:00:04>     10      0.00000431      0.00000262      0.0
 <Mar23-2019> <10:00:04>     11      0.00000029      0.00000016      0.0
 <Mar23-2019> <10:00:04>     12      0.00000001      0.00000001      0.0
 <Mar23-2019> <10:00:04>  SCF converged
 <Mar23-2019> <10:00:04>     13      0.00000000      0.00000000      0.0
 <Mar23-2019> <10:00:04>  >>>> POPAN
 <Mar23-2019> <10:00:04>  >>>> DEBYE
 <Mar23-2019> <10:00:04>  NORMAL TERMINATION
 <Mar23-2019> <10:00:04>  END
 <Mar23-2019> <10:00:05>  ADF 2018  RunTime: Mar23-2019 10:00:05  Nodes: 1  Procs: 4
 <Mar23-2019> <10:00:05>  HCN
 <Mar23-2019> <10:00:05>  RunType   : SINGLE POINT
 <Mar23-2019> <10:00:05>  Net Charge: 0 (Nuclei minus Electrons)
 <Mar23-2019> <10:00:05>  Symmetry  : C(LIN)
 <Mar23-2019> <10:00:05>  >>>> FRAGM
  Coordinates
    Atom         X           Y           Z   (Angstrom)
    1.H         0.000000    0.000000    0.000000
    2.C         0.000000    0.000000    1.066800
    3.N         0.000000    0.000000    2.223200
 <Mar23-2019> <10:00:05>  >>>> CORORT
 <Mar23-2019> <10:00:05>  >>>> FITINT
 <Mar23-2019> <10:00:05>  >>>> CLSMAT
 <Mar23-2019> <10:00:05>  >>>> ORTHON
 <Mar23-2019> <10:00:05>  >>>> GENPT
 <Mar23-2019> <10:00:05>  Block Length= 128
 <Mar23-2019> <10:00:05>  >>>> PTBAS
 <Mar23-2019> <10:00:06>  >>>> CYCLE
 <Mar23-2019> <10:00:08>  CalcFitR12Fit
 <Mar23-2019> <10:00:08>  CalcFitCoeff
 <Mar23-2019> <10:00:17>              |Error|         MaxErr       Wt(A-DIIS)
 <Mar23-2019> <10:00:17>      1      3.41666916      1.63394742
 <Mar23-2019> <10:00:20>      2      0.52571114      0.20151544    100.0
 <Mar23-2019> <10:00:23>      3      0.43846797      0.17266964    100.0
 <Mar23-2019> <10:00:26>      4      0.16290086      0.07209643     71.8
 <Mar23-2019> <10:00:29>      5      0.11200946      0.04402422     43.5
 <Mar23-2019> <10:00:32>      6      0.01563820      0.00755170      6.6
 <Mar23-2019> <10:00:35>      7      0.00186570      0.00064924      0.0
 <Mar23-2019> <10:00:39>      8      0.00014484      0.00006024      0.0
 <Mar23-2019> <10:00:41>      9      0.00001185      0.00000495      0.0
 <Mar23-2019> <10:00:44>     10      0.00000153      0.00000053      0.0
 <Mar23-2019> <10:00:46>  SCF converged
 <Mar23-2019> <10:00:47>     11      0.00000021      0.00000008      0.0
 <Mar23-2019> <10:00:50>   Total energy        -92.91410391 a.u.
 <Mar23-2019> <10:00:50>  >>>> POPAN
 <Mar23-2019> <10:00:50>  >>>> DEBYE
 <Mar23-2019> <10:00:51>  NORMAL TERMINATION
 <Mar23-2019> <10:00:51>  END
