 
Create Xe   file=QZ4P-Xe
XC
  HartreeFock
End
  HartreeFock

 *******************************************************************************
 *                                                                             *
 *  -------------------------------------                                      *
 *   Amsterdam Density Functional  (ADF)         2018                          *
 *  -------------------------------------                                      *
 *                                               r70630 2018-11-24             *
 *                                                                             *
 *                                                                             *
 *                              =================                              *
 *                              |               |                              *
 *                              |     A D F     |                              *
 *                              |               |                              *
 *                              =================                              *
 *                                                                             *
 *                                                                             *
 *   Online information and documentation:  https://www.scm.com/support/       *
 *   E-mail:  support@scm.com   info@scm.com                                   *
 *                                                                             *
 *   Scientific publications using ADF results must be properly referenced     *
 *   See the User Manuals (or the web site) for recommended citations          *
 *   The terms and conditions of the End User License Agreement apply to       *
 *   the use of ADF, https://www.scm.com/license-terms/                        *
 *                                                                             *
 **********************  x86_64_linux_intel / intelmpi  ************************
 
 Licensed to: Mr. Vladimir Konjkov / Florida Institute of Technology / Melbourne / Florida / USA
 SCM User ID: u21173
  
 ADF 2018  RunTime: Mar23-2019 10:00:01  Nodes: 1  Procs: 1

 Temporary files are created in /tmp/kid_0.1552436184

 Xenon (QZ, all electron, 18S 15P 8D 3F)



 ===========================
 A T T A C H E D   F I L E S
 ===========================
  
 CREATE - Data File:    QZ4P-Xe
                        Xenon (QZ, all electron, 18S 15P 8D 3F)



 ===============================
 M O D E L   P A R A M E T E R S
 ===============================
  
 DENSITY FUNCTIONAL POTENTIAL (scf)
    Hybrid:                            HARTREEFOCK                             == Not Default ==

 SPIN  (restricted / unrestr.)
    Molecule:                          Restricted                               

 OTHER ASPECTS
    Relativistic Corrections:          ---                                      

    Nuclear Charge Density Model:      Point Charge Nuclei                      
    Core Treatment:                    Frozen Orbital(s)                        

    Hyperfine or Zeeman Interaction:   ---                                      



 =====================================
 S Y M M E T R Y ,   E L E C T R O N S
 =====================================
  
 Symmetry: ATOM

 Irreducible Representations, including subspecies
 -------------------------------------------------
 S
 P:x  P:y  P:z
 D:z2  D:x2-y2  D:xy  D:xz  D:yz
 F:z3  F:z  F:xyz  F:z2x  F:z2y  F:x  F:y


 Configuration of Valence Electrons
 ==================================

          Occupation Numbers
          -------------------------------------------------
 S        5*2
 P        4*6
 D        2*10
 F        0
          -------------------------------------------------

 Total:   54

 Net Charge: 0 (Nuclei minus Electrons)

 Preset values for MO occupations will be applied through SCF cycle no. 1000000
 Thereafter, the program will assign electrons to MOs that are spatially
 similar to the occupied MOs in a "reference" cycle ("KeepOrbitals").
 The reference cycle is always the PREVIOUS cycle: it will evolve with
 the SCF procedure.



 ================================
 (Slater-type)  F U N C T I O N S  ***  (Basis and Fit)  ***
 ================================
  

 Atom Type    1  (Xe)
 ==============

 Valence Basis Sets:  44
 -----------------------
   1 S 2300.000000
   1 S  560.000000
   1 S  185.000000
   1 S   77.000000
   1 S   54.300000
   2 S   47.450000
   2 S   26.450000
   2 S   21.850000
   3 S   17.500000
   3 S   13.100000
   3 S   10.450000
   4 S    9.350000
   4 S    6.600000
   4 S    4.950000
   5 S    3.550000
   5 S    2.450000
   5 S    1.710000
   5 S    1.000000
   2 P  560.000000
   2 P  185.000000
   2 P   61.600000
   2 P   29.800000
   2 P   21.850000
   3 P   15.100000
   3 P   11.700000
   3 P    9.250000
   4 P    8.000000
   4 P    5.700000
   4 P    4.200000
   5 P    3.250000
   5 P    2.200000
   5 P    1.500000
   5 P    1.050000
   3 D   22.150000
   3 D   13.450000
   3 D    9.300000
   4 D    7.650000
   4 D    5.300000
   4 D    3.700000
   4 D    2.700000
   5 D    1.500000
   4 F    4.000000
   4 F    2.000000
   4 F    1.000000

 Charge Fitting Sets (for the computation of the Coulomb Potential):  91
 -----------------------------------------------------------------------
   1 S 4600.000000
   1 S 3465.943000
   1 S 2611.470000
   1 S 1967.653000
   1 S 1482.559000
   1 S 1117.058000
   1 S  841.665000
   1 S  634.166000
   1 S  477.822000
   1 S  360.023000
   1 S  271.265000
   1 S  204.389000
   1 S  154.000000
   1 S   98.730000
   2 S  116.930000
   2 S   82.910000
   3 S   86.070000
   3 S   64.380000
   3 S   48.150000
   4 S   47.520000
   4 S   36.790000
   4 S   28.480000
   5 S   27.420000
   5 S   21.750000
   5 S   17.260000
   6 S   16.380000
   6 S   13.240000
   6 S   10.700000
   7 S   10.080000
   7 S    8.260000
   7 S    6.780000
   8 S    6.350000
   8 S    5.270000
   8 S    4.380000
   8 S    3.630000
   9 S    3.390000
   9 S    2.840000
   9 S    2.390000
   9 S    2.000000
   2 P  106.800000
   2 P   64.010000
   3 P   56.760000
   3 P   36.850000
   4 P   31.810000
   5 P   27.180000
   6 P   23.160000
   6 P   16.880000
   7 P   14.380000
   7 P   10.710000
   8 P    9.140000
   8 P    6.930000
   8 P    5.260000
   9 P    4.490000
   9 P    3.460000
   9 P    2.660000
   9 P    2.050000
   3 D   90.450000
   3 D   56.880000
   4 D   47.650000
   5 D   39.660000
   5 D   27.410000
   6 D   22.800000
   6 D   16.230000
   7 D   13.520000
   7 D    9.860000
   7 D    7.190000
   8 D    6.010000
   8 D    4.460000
   8 D    3.320000
   9 D    2.780000
   9 D    2.100000
   4 F   79.500000
   5 F   62.010000
   5 F   40.290000
   6 F   31.580000
   6 F   21.250000
   7 F   16.760000
   7 F   11.590000
   7 F    8.010000
   8 F    6.360000
   8 F    4.500000
   8 F    3.180000
   8 F    2.250000
   5 G   32.300000
   5 G   19.720000
   6 G   14.570000
   6 G    9.260000
   7 G    6.910000
   7 G    4.530000
   8 G    3.420000
   8 G    2.300000


 BAS: List of all Elementary Cartesian Basis Functions
 =====================================================

 The numbering in the list below (to the right of the function characteristics) is referred
 to in print-outs of MO eigenvectors and Mulliken populations in the BAS representation
 (as contrasted to the SFO representation).

 Notes:
 1. The functions are characterized by a polynomial prefactor (powers of x,y,z and r) and
    an exponential decay factor alpha.
 2. Since the basis sets are specific for an atom TYPE, the individual functions occur on
    all atoms of that type.
 3. The word 'Core' in the left margin signals that it is a Core Function (CF) : not a
    degree of freedom in the valence set, but only used to ensure orthogonalization of
    the other valence basis functions on the frozen Core Orbitals.


 (power of) X  Y  Z  R     Alpha  on Atom
            ==========     =====     ==========

 Xe                                   1
                                  ---------------------------------------------------------------------------
            0  0  0  0  2300.000      1
            0  0  0  0   560.000      2
            0  0  0  0   185.000      3
            0  0  0  0    77.000      4
            0  0  0  0    54.300      5
            0  0  0  1    47.450      6
            0  0  0  1    26.450      7
            0  0  0  1    21.850      8
            0  0  0  2    17.500      9
            0  0  0  2    13.100     10
            0  0  0  2    10.450     11
            0  0  0  3     9.350     12
            0  0  0  3     6.600     13
            0  0  0  3     4.950     14
            0  0  0  4     3.550     15
            0  0  0  4     2.450     16
            0  0  0  4     1.710     17
            0  0  0  4     1.000     18
            1  0  0  0   560.000     19
            0  1  0  0   560.000     20
            0  0  1  0   560.000     21
            1  0  0  0   185.000     22
            0  1  0  0   185.000     23
            0  0  1  0   185.000     24
            1  0  0  0    61.600     25
            0  1  0  0    61.600     26
            0  0  1  0    61.600     27
            1  0  0  0    29.800     28
            0  1  0  0    29.800     29
            0  0  1  0    29.800     30
            1  0  0  0    21.850     31
            0  1  0  0    21.850     32
            0  0  1  0    21.850     33
            1  0  0  1    15.100     34
            0  1  0  1    15.100     35
            0  0  1  1    15.100     36
            1  0  0  1    11.700     37
            0  1  0  1    11.700     38
            0  0  1  1    11.700     39
            1  0  0  1     9.250     40
            0  1  0  1     9.250     41
            0  0  1  1     9.250     42
            1  0  0  2     8.000     43
            0  1  0  2     8.000     44
            0  0  1  2     8.000     45
            1  0  0  2     5.700     46
            0  1  0  2     5.700     47
            0  0  1  2     5.700     48
            1  0  0  2     4.200     49
            0  1  0  2     4.200     50
            0  0  1  2     4.200     51
            1  0  0  3     3.250     52
            0  1  0  3     3.250     53
            0  0  1  3     3.250     54
            1  0  0  3     2.200     55
            0  1  0  3     2.200     56
            0  0  1  3     2.200     57
            1  0  0  3     1.500     58
            0  1  0  3     1.500     59
            0  0  1  3     1.500     60
            1  0  0  3     1.050     61
            0  1  0  3     1.050     62
            0  0  1  3     1.050     63
            2  0  0  0    22.150     64
            1  1  0  0    22.150     65
            1  0  1  0    22.150     66
            0  2  0  0    22.150     67
            0  1  1  0    22.150     68
            0  0  2  0    22.150     69
            2  0  0  0    13.450     70
            1  1  0  0    13.450     71
            1  0  1  0    13.450     72
            0  2  0  0    13.450     73
            0  1  1  0    13.450     74
            0  0  2  0    13.450     75
            2  0  0  0     9.300     76
            1  1  0  0     9.300     77
            1  0  1  0     9.300     78
            0  2  0  0     9.300     79
            0  1  1  0     9.300     80
            0  0  2  0     9.300     81
            2  0  0  1     7.650     82
            1  1  0  1     7.650     83
            1  0  1  1     7.650     84
            0  2  0  1     7.650     85
            0  1  1  1     7.650     86
            0  0  2  1     7.650     87
            2  0  0  1     5.300     88
            1  1  0  1     5.300     89
            1  0  1  1     5.300     90
            0  2  0  1     5.300     91
            0  1  1  1     5.300     92
            0  0  2  1     5.300     93
            2  0  0  1     3.700     94
            1  1  0  1     3.700     95
            1  0  1  1     3.700     96
            0  2  0  1     3.700     97
            0  1  1  1     3.700     98
            0  0  2  1     3.700     99
            2  0  0  1     2.700    100
            1  1  0  1     2.700    101
            1  0  1  1     2.700    102
            0  2  0  1     2.700    103
            0  1  1  1     2.700    104
            0  0  2  1     2.700    105
            2  0  0  2     1.500    106
            1  1  0  2     1.500    107
            1  0  1  2     1.500    108
            0  2  0  2     1.500    109
            0  1  1  2     1.500    110
            0  0  2  2     1.500    111
            3  0  0  0     4.000    112
            2  1  0  0     4.000    113
            2  0  1  0     4.000    114
            1  2  0  0     4.000    115
            1  1  1  0     4.000    116
            1  0  2  0     4.000    117
            0  3  0  0     4.000    118
            0  2  1  0     4.000    119
            0  1  2  0     4.000    120
            0  0  3  0     4.000    121
            3  0  0  0     2.000    122
            2  1  0  0     2.000    123
            2  0  1  0     2.000    124
            1  2  0  0     2.000    125
            1  1  1  0     2.000    126
            1  0  2  0     2.000    127
            0  3  0  0     2.000    128
            0  2  1  0     2.000    129
            0  1  2  0     2.000    130
            0  0  3  0     2.000    131
            3  0  0  0     1.000    132
            2  1  0  0     1.000    133
            2  0  1  0     1.000    134
            1  2  0  0     1.000    135
            1  1  1  0     1.000    136
            1  0  2  0     1.000    137
            0  3  0  0     1.000    138
            0  2  1  0     1.000    139
            0  1  2  0     1.000    140
            0  0  3  0     1.000    141

 Total number of charge fitting functions (nprimf)       420
 Total number of Cartesian basis functions (naos)        141
 Total number of Cartesian core functions  (ncos)          0



 BAS: List of all Elementary Cartesian Basis Functions
 =====================================================

 The numbering in the list below (to the right of the function characteristics) is referred
 to in print-outs of MO eigenvectors and Mulliken populations in the BAS representation
 (as contrasted to the SFO representation).

 Notes:
 1. The functions are characterized by a polynomial prefactor (powers of x,y,z and r) and
    an exponential decay factor alpha.
 2. Since the basis sets are specific for an atom TYPE, the individual functions occur on
    all atoms of that type.
 3. The word 'Core' in the left margin signals that it is a Core Function (CF) : not a
    degree of freedom in the valence set, but only used to ensure orthogonalization of
    the other valence basis functions on the frozen Core Orbitals.


 (power of) X  Y  Z  R     Alpha  on Atom
            ==========     =====     ==========

 Xe                                   1
                                  ---------------------------------------------------------------------------
            0  0  0  0  2300.000      1
            0  0  0  0   560.000      2
            0  0  0  0   185.000      3
            0  0  0  0    77.000      4
            0  0  0  0    54.300      5
            0  0  0  1    47.450      6
            0  0  0  1    26.450      7
            0  0  0  1    21.850      8
            0  0  0  2    17.500      9
            0  0  0  2    13.100     10
            0  0  0  2    10.450     11
            0  0  0  3     9.350     12
            0  0  0  3     6.600     13
            0  0  0  3     4.950     14
            0  0  0  4     3.550     15
            0  0  0  4     2.450     16
            0  0  0  4     1.710     17
            0  0  0  4     1.000     18
            1  0  0  0   560.000     19
            0  1  0  0   560.000     20
            0  0  1  0   560.000     21
            1  0  0  0   185.000     22
            0  1  0  0   185.000     23
            0  0  1  0   185.000     24
            1  0  0  0    61.600     25
            0  1  0  0    61.600     26
            0  0  1  0    61.600     27
            1  0  0  0    29.800     28
            0  1  0  0    29.800     29
            0  0  1  0    29.800     30
            1  0  0  0    21.850     31
            0  1  0  0    21.850     32
            0  0  1  0    21.850     33
            1  0  0  1    15.100     34
            0  1  0  1    15.100     35
            0  0  1  1    15.100     36
            1  0  0  1    11.700     37
            0  1  0  1    11.700     38
            0  0  1  1    11.700     39
            1  0  0  1     9.250     40
            0  1  0  1     9.250     41
            0  0  1  1     9.250     42
            1  0  0  2     8.000     43
            0  1  0  2     8.000     44
            0  0  1  2     8.000     45
            1  0  0  2     5.700     46
            0  1  0  2     5.700     47
            0  0  1  2     5.700     48
            1  0  0  2     4.200     49
            0  1  0  2     4.200     50
            0  0  1  2     4.200     51
            1  0  0  3     3.250     52
            0  1  0  3     3.250     53
            0  0  1  3     3.250     54
            1  0  0  3     2.200     55
            0  1  0  3     2.200     56
            0  0  1  3     2.200     57
            1  0  0  3     1.500     58
            0  1  0  3     1.500     59
            0  0  1  3     1.500     60
            1  0  0  3     1.050     61
            0  1  0  3     1.050     62
            0  0  1  3     1.050     63
            2  0  0  0    22.150     64
            1  1  0  0    22.150     65
            1  0  1  0    22.150     66
            0  2  0  0    22.150     67
            0  1  1  0    22.150     68
            0  0  2  0    22.150     69
            2  0  0  0    13.450     70
            1  1  0  0    13.450     71
            1  0  1  0    13.450     72
            0  2  0  0    13.450     73
            0  1  1  0    13.450     74
            0  0  2  0    13.450     75
            2  0  0  0     9.300     76
            1  1  0  0     9.300     77
            1  0  1  0     9.300     78
            0  2  0  0     9.300     79
            0  1  1  0     9.300     80
            0  0  2  0     9.300     81
            2  0  0  1     7.650     82
            1  1  0  1     7.650     83
            1  0  1  1     7.650     84
            0  2  0  1     7.650     85
            0  1  1  1     7.650     86
            0  0  2  1     7.650     87
            2  0  0  1     5.300     88
            1  1  0  1     5.300     89
            1  0  1  1     5.300     90
            0  2  0  1     5.300     91
            0  1  1  1     5.300     92
            0  0  2  1     5.300     93
            2  0  0  1     3.700     94
            1  1  0  1     3.700     95
            1  0  1  1     3.700     96
            0  2  0  1     3.700     97
            0  1  1  1     3.700     98
            0  0  2  1     3.700     99
            2  0  0  1     2.700    100
            1  1  0  1     2.700    101
            1  0  1  1     2.700    102
            0  2  0  1     2.700    103
            0  1  1  1     2.700    104
            0  0  2  1     2.700    105
            2  0  0  2     1.500    106
            1  1  0  2     1.500    107
            1  0  1  2     1.500    108
            0  2  0  2     1.500    109
            0  1  1  2     1.500    110
            0  0  2  2     1.500    111
            3  0  0  0     4.000    112
            2  1  0  0     4.000    113
            2  0  1  0     4.000    114
            1  2  0  0     4.000    115
            1  1  1  0     4.000    116
            1  0  2  0     4.000    117
            0  3  0  0     4.000    118
            0  2  1  0     4.000    119
            0  1  2  0     4.000    120
            0  0  3  0     4.000    121
            3  0  0  0     2.000    122
            2  1  0  0     2.000    123
            2  0  1  0     2.000    124
            1  2  0  0     2.000    125
            1  1  1  0     2.000    126
            1  0  2  0     2.000    127
            0  3  0  0     2.000    128
            0  2  1  0     2.000    129
            0  1  2  0     2.000    130
            0  0  3  0     2.000    131
            3  0  0  0     1.000    132
            2  1  0  0     1.000    133
            2  0  1  0     1.000    134
            1  2  0  0     1.000    135
            1  1  1  0     1.000    136
            1  0  2  0     1.000    137
            0  3  0  0     1.000    138
            0  2  1  0     1.000    139
            0  1  2  0     1.000    140
            0  0  3  0     1.000    141
1
 ***************************************************************************************************



                                              ***********************
                                              *  T E C H N I C A L  *
                                              ***********************
  



 =============================================================
 P A R A L L E L I Z A T I O N  and  V E C T O R I Z A T I O N
 =============================================================
  
 Nr of parallel processes:                                1
 Maximum vector length in NumInt loops:                 128

 IO buffersize (Mb):                                     64.000000



 =====================
 S C F   U P D A T E S
 =====================
  
 Max. nr. of cycles:                               300
 Convergence criterion:                              0.0000000100
   secondary criterion:                              0.0000000100

 Mix parameter (when DIIS does not apply):           0.2000000000
 Special mix parameter for the first cycle:          1.0000000000
 Mixed ADIIS+DIIS will be used
    Max number of expansion vectors:                10
    Pure ADIIS when Max([F,P]) is above              0.1000000000
    Pure DIIS when Max([F,P]) is below               0.0010000000
 Automatic ElectronSmearing (in case of problematic SCF convergence) disabled



 =================
 P R E C I S I O N  ***  (General: NumInt, NeglectFunctionTails, ...)  ***
 =================
  

 NumInt:           Target precision:                12.0000000000
 -------           Initial precision:               10.0000000000
                   Min. precision (optimization):   10.0000000000

 Neglect Functions:          Basis functions:        0.1000000000E-13
 ------------------          Fit functions:          0.1000000000E-13



 ===========================
 L I N E A R   S C A L I N G
 ===========================
  

 Cut-off radii density fit:                        0.1000000000E-97
 Overlap cut-off criterion AO matrix elements:     0.1000000000E-97
 Cut-offs for Coulomb potential and fitted density:0.1000000000E-97
 Cut-off criterion for Coulomb multipole terms:    0.1000000000E-97
 Progressive Convergence parameter:                 0.000000000    
1
 ***************************************************************************************************



                                            ***************************
                                            *  C O M P U T A T I O N  *
                                            ***************************
  

 Number of elements of the density matrix on this node (used, total):     10011     10011



 ===========================================
 Numerical Integration : Fuzzy Cells (Becke)
 ===========================================
  
 Becke grid quality: VERYGOOD       
  
 Lebedev angular grid order:             min:  13 max:  41
 Nr. of radial points:                   min: 281 max: 281

 Total nr. of points:        281
 Nr. of blocks:                3
 Block length:                94
 Nr. of dummy points:          1


 Test of Precision of the Numerical Integration Grid
 ===================================================

 Integral of the Total Core Density:                   0.00000000000000



 ========================
 Density Fitting (zlmFit)
 ========================
  
 ZlmFit Fit Quality: VERYGOOD       
  
 Max L-expansion:                        min:   0 max:   0
 Nr. of radial interpolation points:     min: 660 max: 660



 ======================
 RI Hartree-Fock Scheme
 ======================
  
 Fit Set Quality     : NORMAL
 Integration Quality : NORMAL
 Threshold Quality   : NORMAL
 Response Quality    : DEFAULT
 Is Range Separated  :  F
 
 RIHartreeFock Dependency: number of modified vectors:           8



 =====
 S C F  ***  ScaSCF  ***
 =====
  

 CYCLE    1
 SCF Error: norm([F,P])=      0.000000000000, max([F,P])=      0.000000000000
 orbitals (Q,E):
 ---------------
 S :1...15           ( 2.00 -1458.0000)  ( 2.00  -364.4999)  ( 2.00  -162.0000)  ( 2.00   -91.1245)
                     ( 2.00   -58.3199)  ( 0.00   -40.4954)  ( 0.00   -29.7297)  ( 0.00   -22.6216)
                     ( 0.00   -16.9847)  ( 0.00   -12.0187)  ( 0.00    -7.7106)  ( 0.00     8.0444)
                     ( 0.00   189.5998)  ( 0.00   979.7410)  ( 0.00  4507.0456)
 P :1...14           ( 6.00  -364.4989)  ( 6.00  -161.9982)  ( 6.00   -91.1230)  ( 6.00   -58.3027)
                     ( 0.00   -40.4386)  ( 0.00   -29.5176)  ( 0.00   -21.9600)  ( 0.00   -16.0627)
                     ( 0.00   -11.3466)  ( 0.00    -7.7739)  ( 0.00    -6.0008)  ( 0.00   196.7235)
                     ( 0.00  1686.6024)  ( 0.00 15503.4721)
 D :1...8            (10.00  -161.9260)  (10.00   -90.9753)  ( 0.00   -58.1140)  ( 0.00   -40.0495)
                     ( 0.00   -28.4920)  ( 0.00   -19.9217)  ( 0.00   -12.3129)  ( 0.00    32.9292)
 F :1...3            ( 0.00   -48.4956)  ( 0.00   -22.8683)  ( 0.00   -11.0091)

 CYCLE    2
  SDIIS (wt  0.000):  1.0000  0.0000
 A-DIIS (wt  1.000):  0.0000  1.0000
  DIIS coefficients:  0.0000  1.0000
 SCF Error: norm([F,P])=    308.870847689134, max([F,P])=     42.121264327825
 orbitals (Q,E):
 ---------------
 S :1...6            ( 2.00 -1146.6907)  ( 2.00  -131.6903)  ( 2.00   -10.2418)  ( 2.00     0.0397)
                     ( 2.00     0.2022)  ( 0.00     0.6312)
 P :1...5            ( 6.00  -116.8277)  ( 6.00    -5.0495)  ( 6.00     0.0829)  ( 6.00     0.2962)
                     ( 0.00     0.7867)
 D :1...3            (10.00     0.3710)  (10.00     1.4209)  ( 0.00     3.2633)
 F :1...1            ( 0.00     0.4110)

 CYCLE    3
  SDIIS (wt  0.000):  0.1232  0.8768
 A-DIIS (wt  1.000):  0.5204  0.4796
  DIIS coefficients:  0.5204  0.4796
 SCF Error: norm([F,P])=    109.003993239762, max([F,P])=     22.488596950537
 orbitals (Q,E):
 ---------------
 S :1...6            ( 2.00 -1221.1353)  ( 2.00  -192.2068)  ( 2.00   -46.9542)  ( 2.00   -14.3275)
                     ( 2.00    -4.9458)  ( 0.00    -1.6551)
 P :1...5            ( 6.00  -179.6339)  ( 6.00   -41.7032)  ( 6.00   -12.4061)  ( 6.00    -4.2092)
                     ( 0.00    -1.3226)
 D :1...3            (10.00   -31.6990)  (10.00    -8.9550)  ( 0.00    -3.0694)
 F :1...1            ( 0.00    -4.5751)

 CYCLE    4
  SDIIS (wt  0.000):  0.0109 -0.0160  1.0051
 A-DIIS (wt  1.000):  0.0000  0.0000  1.0000
  DIIS coefficients:  0.0000  0.0000  1.0000
 SCF Error: norm([F,P])=     17.253628959318, max([F,P])=      2.972634891667
 orbitals (Q,E):
 ---------------
 S :1...6            ( 2.00 -1220.6992)  ( 2.00  -185.2733)  ( 2.00   -36.1527)  ( 2.00    -5.0802)
                     ( 2.00    -0.0834)  ( 0.00     0.0948)
 P :1...5            ( 6.00  -173.7519)  ( 6.00   -31.1874)  ( 6.00    -3.3215)  ( 6.00     0.0748)
                     ( 0.00     0.2322)
 D :1...3            (10.00   -22.0124)  (10.00    -0.3462)  ( 0.00     0.3819)
 F :1...1            ( 0.00     0.4077)

 CYCLE    5
  SDIIS (wt  0.000):  0.0034 -0.0147  0.2673  0.7440
 A-DIIS (wt  1.000):  0.0000  0.0000  0.3840  0.6160
  DIIS coefficients:  0.0000  0.0000  0.3840  0.6160
 SCF Error: norm([F,P])=      8.998789729125, max([F,P])=      2.146464458097
 orbitals (Q,E):
 ---------------
 S :1...6            ( 2.00 -1226.4725)  ( 2.00  -191.0576)  ( 2.00   -41.4337)  ( 2.00    -8.7700)
                     ( 2.00    -1.4659)  ( 0.00    -0.1744)
 P :1...5            ( 6.00  -179.5548)  ( 6.00   -36.4940)  ( 6.00    -6.9015)  ( 6.00    -0.8471)
                     ( 0.00    -0.1002)
 D :1...3            (10.00   -27.4284)  (10.00    -3.6295)  ( 0.00    -0.1375)
 F :1...1            ( 0.00     0.1213)

 CYCLE    6
  SDIIS (wt  0.000): -0.0006  0.0009  0.0258  0.1525  0.8215
 A-DIIS (wt  1.000):  0.0000  0.0000  0.0000  0.0000  1.0000
  DIIS coefficients:  0.0000  0.0000  0.0000  0.0000  1.0000
 SCF Error: norm([F,P])=      2.286705056074, max([F,P])=      0.434041445933
 orbitals (Q,E):
 ---------------
 S :1...6            ( 2.00 -1223.2679)  ( 2.00  -188.3529)  ( 2.00   -39.4047)  ( 2.00    -7.3284)
                     ( 2.00    -0.7600)  ( 0.00     0.0699)
 P :1...5            ( 6.00  -176.7711)  ( 6.00   -34.4424)  ( 6.00    -5.4893)  ( 6.00    -0.2991)
                     ( 0.00     0.1073)
 D :1...3            (10.00   -25.3124)  (10.00    -2.2856)  ( 0.00     0.3009)
 F :1...1            ( 0.00     0.3900)

 CYCLE    7
  SDIIS (wt  0.000): -0.0000  0.0002 -0.0045 -0.0451  0.2987  0.7508
 A-DIIS (wt  1.000):  0.0000  0.0000  0.0000  0.0000  0.0000  1.0000
  DIIS coefficients:  0.0000  0.0000  0.0000  0.0000  0.0000  1.0000
 SCF Error: norm([F,P])=      1.311607605686, max([F,P])=      0.305775566846
 orbitals (Q,E):
 ---------------
 S :1...6            ( 2.00 -1224.9899)  ( 2.00  -189.8592)  ( 2.00   -40.5593)  ( 2.00    -8.0727)
                     ( 2.00    -1.0022)  ( 0.00     0.0568)
 P :1...5            ( 6.00  -178.3147)  ( 6.00   -35.6106)  ( 6.00    -6.2168)  ( 6.00    -0.5022)
                     ( 0.00     0.0992)
 D :1...3            (10.00   -26.5233)  (10.00    -2.9668)  ( 0.00     0.2244)
 F :1...1            ( 0.00     0.3671)

 CYCLE    8
  SDIIS (wt  0.000):  0.0000 -0.0001 -0.0010 -0.0114  0.0007  0.4152  0.5965
 A-DIIS (wt  1.000):  0.0000  0.0000  0.0000  0.0000  0.0000  0.0257  0.9743
  DIIS coefficients:  0.0000  0.0000  0.0000  0.0000  0.0000  0.0257  0.9743
 SCF Error: norm([F,P])=      0.777391248769, max([F,P])=      0.174558944930
 orbitals (Q,E):
 ---------------
 S :1...6            ( 2.00 -1224.0947)  ( 2.00  -189.0791)  ( 2.00   -39.9894)  ( 2.00    -7.7573)
                     ( 2.00    -0.9215)  ( 0.00     0.0628)
 P :1...5            ( 6.00  -177.5139)  ( 6.00   -35.0327)  ( 6.00    -5.9127)  ( 6.00    -0.4387)
                     ( 0.00     0.1028)
 D :1...3            (10.00   -25.9207)  (10.00    -2.6910)  ( 0.00     0.2493)
 F :1...1            ( 0.00     0.3752)

 CYCLE    9
  SDIIS (wt  0.084): -0.0000  0.0000 -0.0008  0.0004 -0.0082 -0.0438  0.3244  0.7280
 A-DIIS (wt  0.916):  0.0000  0.0000  0.0000  0.0000  0.0000  0.0000  0.0026  0.9974
  DIIS coefficients: -0.0000  0.0000 -0.0001  0.0000 -0.0007 -0.0037  0.0296  0.9748
 SCF Error: norm([F,P])=      0.398424772616, max([F,P])=      0.091698254478
 orbitals (Q,E):
 ---------------
 S :1...6            ( 2.00 -1224.5472)  ( 2.00  -189.4680)  ( 2.00   -40.2655)  ( 2.00    -7.9034)
                     ( 2.00    -0.9558)  ( 0.00     0.0609)
 P :1...5            ( 6.00  -177.9142)  ( 6.00   -35.3132)  ( 6.00    -6.0537)  ( 6.00    -0.4662)
                     ( 0.00     0.1015)
 D :1...3            (10.00   -26.2146)  (10.00    -2.8189)  ( 0.00     0.2395)
 F :1...1            ( 0.00     0.3725)

 CYCLE   10
  SDIIS (wt  0.559): -0.0000 -0.0000  0.0001 -0.0001 -0.0014 -0.0131 -0.0291  0.3304  0.7131
 A-DIIS (wt  0.441):  0.0000  0.0000  0.0000  0.0000  0.0000  0.0000  0.0000  0.0000  1.0000
  DIIS coefficients: -0.0000 -0.0000  0.0000 -0.0000 -0.0008 -0.0073 -0.0163  0.1847  0.8396
 SCF Error: norm([F,P])=      0.196285092296, max([F,P])=      0.044661043227
 orbitals (Q,E):
 ---------------
 S :1...6            ( 2.00 -1224.3632)  ( 2.00  -189.3103)  ( 2.00   -40.1546)  ( 2.00    -7.8453)
                     ( 2.00    -0.9420)  ( 0.00     0.0618)
 P :1...5            ( 6.00  -177.7518)  ( 6.00   -35.2005)  ( 6.00    -5.9978)  ( 6.00    -0.4554)
                     ( 0.00     0.1021)
 D :1...3            (10.00   -26.0964)  (10.00    -2.7684)  ( 0.00     0.2436)
 F :1...1            ( 0.00     0.3737)

 CYCLE   11
  SDIIS (wt  0.903):  0.0000  0.0000 -0.0000  0.0000  0.0001  0.0014 -0.0067 -0.0633  0.1273  0.9412
 A-DIIS (wt  0.097):  0.0000  0.0000  0.0000  0.0000  0.0000  0.0000  0.0000  0.0000  0.0000  1.0000
  DIIS coefficients:  0.0000  0.0000 -0.0000  0.0000  0.0001  0.0012 -0.0060 -0.0572  0.1150  0.9469
 SCF Error: norm([F,P])=      0.046261785681, max([F,P])=      0.010572211002
 orbitals (Q,E):
 ---------------
 S :1...6            ( 2.00 -1224.4001)  ( 2.00  -189.3418)  ( 2.00   -40.1766)  ( 2.00    -7.8568)
                     ( 2.00    -0.9446)  ( 0.00     0.0617)
 P :1...5            ( 6.00  -177.7843)  ( 6.00   -35.2229)  ( 6.00    -6.0088)  ( 6.00    -0.4574)
                     ( 0.00     0.1020)
 D :1...3            (10.00   -26.1199)  (10.00    -2.7783)  ( 0.00     0.2429)
 F :1...1            ( 0.00     0.3735)

 CYCLE   12
  SDIIS (wt  1.000):  0.0000  0.0000 -0.0000 -0.0000 -0.0000  0.0015  0.0078 -0.0408 -0.1552  1.1868
  DIIS coefficients:  0.0000  0.0000 -0.0000 -0.0000 -0.0000  0.0015  0.0078 -0.0408 -0.1552  1.1868
 SCF Error: norm([F,P])=      0.002407411800, max([F,P])=      0.000549079335
 orbitals (Q,E):
 ---------------
 S :1...6            ( 2.00 -1224.3982)  ( 2.00  -189.3402)  ( 2.00   -40.1755)  ( 2.00    -7.8562)
                     ( 2.00    -0.9444)  ( 0.00     0.0617)
 P :1...5            ( 6.00  -177.7826)  ( 6.00   -35.2217)  ( 6.00    -6.0082)  ( 6.00    -0.4573)
                     ( 0.00     0.1020)
 D :1...3            (10.00   -26.1187)  (10.00    -2.7778)  ( 0.00     0.2429)
 F :1...1            ( 0.00     0.3735)

 CYCLE   13
  SDIIS (wt  1.000): -0.0000 -0.0000  0.0000  0.0000 -0.0001 -0.0006  0.0024  0.0093 -0.0883  1.0773
  DIIS coefficients: -0.0000 -0.0000  0.0000  0.0000 -0.0001 -0.0006  0.0024  0.0093 -0.0883  1.0773
 SCF Error: norm([F,P])=      0.000002669809, max([F,P])=      0.000000377937
 orbitals (Q,E):
 ---------------
 S :1...6            ( 2.00 -1224.3982)  ( 2.00  -189.3402)  ( 2.00   -40.1755)  ( 2.00    -7.8562)
                     ( 2.00    -0.9444)  ( 0.00     0.0617)
 P :1...5            ( 6.00  -177.7826)  ( 6.00   -35.2217)  ( 6.00    -6.0082)  ( 6.00    -0.4573)
                     ( 0.00     0.1020)
 D :1...3            (10.00   -26.1187)  (10.00    -2.7778)  ( 0.00     0.2429)
 F :1...1            ( 0.00     0.3735)

 CYCLE   14
  SDIIS (wt  1.000): -0.0000 -0.0000 -0.0000  0.0000 -0.0000 -0.0000  0.0016 -0.1199  1.1183
  DIIS coefficients: -0.0000 -0.0000 -0.0000  0.0000 -0.0000 -0.0000  0.0016 -0.1199  1.1183
 SCF Error: norm([F,P])=      0.000000146875, max([F,P])=      0.000000032003
 orbitals (Q,E):
 ---------------
 S :1...6            ( 2.00 -1224.3982)  ( 2.00  -189.3402)  ( 2.00   -40.1755)  ( 2.00    -7.8562)
                     ( 2.00    -0.9444)  ( 0.00     0.0617)
 P :1...5            ( 6.00  -177.7826)  ( 6.00   -35.2217)  ( 6.00    -6.0082)  ( 6.00    -0.4573)
                     ( 0.00     0.1020)
 D :1...3            (10.00   -26.1187)  (10.00    -2.7778)  ( 0.00     0.2429)
 F :1...1            ( 0.00     0.3735)

 CYCLE   15
  SDIIS (wt  1.000):  0.0000 -0.0000 -0.0000  0.0000  0.0029 -0.0793  1.0764
  DIIS coefficients:  0.0000 -0.0000 -0.0000  0.0000  0.0029 -0.0793  1.0764
 SCF Error: norm([F,P])=      0.000000010797, max([F,P])=      0.000000001873
 orbitals (Q,E):
 ---------------
 S :1...6            ( 2.00 -1224.3982)  ( 2.00  -189.3402)  ( 2.00   -40.1755)  ( 2.00    -7.8562)
                     ( 2.00    -0.9444)  ( 0.00     0.0617)
 P :1...5            ( 6.00  -177.7826)  ( 6.00   -35.2217)  ( 6.00    -6.0082)  ( 6.00    -0.4573)
                     ( 0.00     0.1020)
 D :1...3            (10.00   -26.1187)  (10.00    -2.7778)  ( 0.00     0.2429)
 F :1...1            ( 0.00     0.3735)

 SCF CONVERGED

 CYCLE   16
1
 ***************************************************************************************************



                                                *******************
                                                *  R E S U L T S  *
                                                *******************
  
  
 Hartree-Fock exchange energy:   -179.099654148801     
 *** Setting up for NEW gradients in Focky
 *** Using FIT density in Focky

 Orbital Energies, per Irrep and Spin:
 ======================================
                        Occup              E (au)              E (eV)       Diff (eV) with prev. cycle
                        -----      --------------------        ------       --------------------------
 S
               1        2.000     -0.12243982106975E+04    -33317.571               2.06E-08
               2        2.000     -0.18934020463675E+03     -5152.209               2.81E-08
               3        2.000     -0.40175473930509E+02     -1093.230               2.66E-08
               4        2.000     -0.78561536293853E+01      -213.777               2.23E-08
               5        2.000     -0.94442740445469E+00       -25.699               1.26E-08
               6        0.000      0.61685971237810E-01         1.679
               7        0.000      0.39116997875736E+00        10.644
               8        0.000      0.15115664194542E+01        41.132
               9        0.000      0.49386342082178E+01       134.387
              10        0.000      0.14727732237559E+02       400.762
              11        0.000      0.41085395014708E+02      1117.990
              12        0.000      0.11466245366856E+03      3120.124
              13        0.000      0.34546976459238E+03      9400.711
              14        0.000      0.11853961900053E+04     32256.272
              15        0.000      0.47577700337588E+04    129465.510
 P
               1        6.000     -0.17778263586471E+03     -4837.712               2.97E-08
               2        6.000     -0.35221733735254E+02      -958.432               2.87E-08
               3        6.000     -0.60082088602701E+01      -163.492               2.68E-08
               4        6.000     -0.45732603459564E+00       -12.444               1.43E-08
               5        0.000      0.10200052956893E+00         2.776
               6        0.000      0.44985954270368E+00        12.241
               7        0.000      0.14360590156672E+01        39.077
               8        0.000      0.41190699448485E+01       112.086
               9        0.000      0.11564167755224E+02       314.677
              10        0.000      0.32491160565710E+02       884.129
              11        0.000      0.97691260653155E+02      2658.314
              12        0.000      0.36881826225610E+03     10036.056
              13        0.000      0.19191394141398E+04     52222.441
              14        0.000      0.15786088932205E+05    429561.336
 D
               1       10.000     -0.26118696482844E+02      -710.726               2.85E-08
               2       10.000     -0.27777939655931E+01       -75.588               2.55E-08
               3        0.000      0.24291717321347E+00         6.610
               4        0.000      0.95838417903878E+00        26.079
               5        0.000      0.35720821515006E+01        97.201
               6        0.000      0.11705960336982E+02       318.535
               7        0.000      0.40002776934649E+02      1088.531
               8        0.000      0.18207958455433E+03      4954.638
 F
               1        0.000      0.37352648130564E+00        10.164
               2        0.000      0.10527326898288E+01        28.646
               3        0.000      0.22173106391084E+01        60.336
  
 HOMO :        4 P                -0.45732603459564E+00
 LUMO :        6 S                 0.61685971237810E-01
  


 Orbital Energies, all Irreps
 ========================================

 Irrep        no.  (spin)   Occup              E (au)                E (eV)
 ---------------------------------------------------------------------------
 S             1             2.00       -0.12243982106975E+04    -33317.5705
 S             2             2.00       -0.18934020463675E+03     -5152.2091
 P             1             6.00       -0.17778263586471E+03     -4837.7117
 S             3             2.00       -0.40175473930509E+02     -1093.2303
 P             2             6.00       -0.35221733735254E+02      -958.4321
 D             1            10.00       -0.26118696482844E+02      -710.7259
 S             4             2.00       -0.78561536293853E+01      -213.7768
 P             3             6.00       -0.60082088602701E+01      -163.4917
 D             2            10.00       -0.27777939655931E+01       -75.5876
 S             5             2.00       -0.94442740445469E+00       -25.6992
 P             4             6.00       -0.45732603459564E+00       -12.4445
 S             6             0.00        0.61685971237810E-01         1.6786
 P             5             0.00        0.10200052956893E+00         2.7756
 D             3             0.00        0.24291717321347E+00         6.6101
 F             1             0.00        0.37352648130564E+00        10.1642
 S             7             0.00        0.39116997875736E+00        10.6443
 P             6             0.00        0.44985954270368E+00        12.2413
 D             4             0.00        0.95838417903878E+00        26.0790
 F             2             0.00        0.10527326898288E+01        28.6463
 P             7             0.00        0.14360590156672E+01        39.0772
 S             8             0.00        0.15115664194542E+01        41.1318
 F             3             0.00        0.22173106391084E+01        60.3361
 D             5             0.00        0.35720821515006E+01        97.2013
 P             8             0.00        0.41190699448485E+01       112.0856
 S             9             0.00        0.49386342082178E+01       134.3871
 P             9             0.00        0.11564167755224E+02       314.6770
 D             6             0.00        0.11705960336982E+02       318.5354
 S            10             0.00        0.14727732237559E+02       400.7620
 P            10             0.00        0.32491160565710E+02       884.1295
 D             7             0.00        0.40002776934649E+02      1088.5309
 S            11             0.00        0.41085395014708E+02      1117.9905
 P            11             0.00        0.97691260653155E+02      2658.3145
 S            12             0.00        0.11466245366856E+03      3120.1241
 D             8             0.00        0.18207958455433E+03      4954.6376
 S            13             0.00        0.34546976459238E+03      9400.7106
 P            12             0.00        0.36881826225610E+03     10036.0556
 S            14             0.00        0.11853961900053E+04     32256.2715
 P            13             0.00        0.19191394141398E+04     52222.4406
 S            15             0.00        0.47577700337588E+04    129465.5099
 P            14             0.00        0.15786088932205E+05    429561.3361
 S            16             0.00        0.24980789871462E+05    679761.8789
 P            15             0.00        0.17429447149315E+06   4742793.8844
 S            17             0.00        0.20440453516812E+06   5562130.4051
 S            18             0.00        0.33615972292575E+07  91473714.8232


 All Electron Calculation, thus no Orbital Energies of the Core Orbitals are calculated



 =======================================
 M U L L I K E N   P O P U L A T I O N S
 =======================================
  
 The survey below gives for each atom:
 a) the total charge (Z minus electrons)
 b) the net spin polarization (nr of electrons spin-A minus spin-B)
 c) for each spin the atomic electron valence density (integrated) per L-value.

 Atom              Charge    Spin density          S         P         D         F
 ----              ------    ------------       ------    ------    ------    ------
 1 Xe              0.0000                      10.0000   24.0000   20.0000    0.0000

 Populations of individual BAS functions
 ----------------------------------------
 1 Xe           0.0000 -0.0000  0.0000  0.0243  1.9343 -0.1573  0.3730  1.8047 -0.1887  1.6541
                0.4016  0.4561  1.3425  0.4173  0.8901  0.8755  0.1736 -0.0012  0.0000  0.0000
                0.0000 -0.0000 -0.0000 -0.0000  0.0055  0.0055  0.0055  0.6914  0.6914  0.6914
                1.2556  1.2556  1.2556  0.4070  0.4070  0.4070  1.4585  1.4585  1.4585  0.1406
                0.1406  0.1406  0.6961  0.6961  0.6961  1.1606  1.1606  1.1606  0.2634  0.2634
                0.2634  0.6654  0.6654  0.6654  0.9333  0.9333  0.9333  0.3134  0.3134  0.3134
                0.0091  0.0091  0.0091  0.1265  0.1897  0.1897  0.1265  0.1897  0.1265  0.8399
                1.2599  1.2599  0.8399  1.2599  0.8399  0.3692  0.5538  0.5538  0.3692  0.5538
                0.3692  0.3104  0.4656  0.4656  0.3104  0.4656  0.3104  0.7362  1.1043  1.1043
                0.7362  1.1043  0.7362  0.2508  0.3762  0.3762  0.2508  0.3762  0.2508  0.0336
                0.0504  0.0504  0.0336  0.0504  0.0336 -0.0000 -0.0000 -0.0000 -0.0000 -0.0000
               -0.0000  0.0000  0.0000  0.0000  0.0000  0.0000  0.0000  0.0000  0.0000  0.0000
                0.0000  0.0000  0.0000  0.0000  0.0000  0.0000  0.0000  0.0000  0.0000  0.0000
                0.0000  0.0000  0.0000  0.0000  0.0000  0.0000  0.0000  0.0000  0.0000  0.0000
                0.0000

 Gross Charges per Atom (Z minus electrons)
 ==========================================
             0.0000
 Net Total:  0.00000000



 =======================================================================
 Electrostatic potential at the Nuclei due to electrons and other nuclei
 =======================================================================
  
         Atom                  Potential
         ----                  ---------
     1)   Xe                317.87113031
 
 
 ========================
 No memory problems found
 ========================
 
 Maximum number of active allocate calls:         454
 
 *******************************************************************************

                             A D F   E X I T
 NORMAL TERMINATION



 =================
 Timing Statistics
 =================
  
 Total Used :                     CPU=        7.71      System=        0.23     Elapsed=        8.75

 Calls  Section                     ( Mean, Percentage )
 ---------------------------------------------------------------------------------------------------
     3  ><      ................      0.00    0.03             0.00    0.00             0.00    0.03
     1  INIT    ................      0.04    0.49             0.00    2.10             0.84    9.62
     1  GEOMET  ................      0.03    0.35             0.02    9.91             0.05    0.57
     1  INPUTA  ................      0.00    0.04             0.00    0.39             0.00    0.05
     1  MAINSY  ................      0.01    0.12             0.00    0.01             0.01    0.10
     1  SYMFIT  ................      0.00    0.00             0.00    0.37             0.00    0.01
     1  CORORT  ................      0.00    0.00             0.00    0.28             0.00    0.01
     1  SYMORB  ................      0.00    0.00             0.00    0.14             0.00    0.01
     1  FITINT  ................      0.10    1.27             0.00    1.23             0.10    1.15
     1  CLSMAT  ................      0.00    0.02             0.00    0.02             0.00    0.01
     1  ORTHON  ................      0.01    0.08             0.00    0.00             0.01    0.07
     1  GENPT   ................      0.04    0.46             0.00    0.00             0.04    0.41
     1  PTBAS   ................      0.00    0.05             0.00    0.41             0.01    0.06
    16  FOCKY   ................      0.45   92.90             0.01   79.95             0.46   84.06
    16  FOCKTR  ................      0.00    0.20             0.00    0.07             0.00    0.18
    16  SDIIS   ................      0.00    0.46             0.00    1.27             0.00    0.44
     1  COREPS  ................      0.13    1.70             0.00    0.85             0.13    1.52
     1  POPAN   ................      0.12    1.52             0.00    2.13             0.12    1.40
     1  DEBYE   ................      0.00    0.03             0.00    0.00             0.00    0.03
     1  EXIT PROCEDURE .........      0.02    0.29             0.00    0.85             0.02    0.28


 Currently Open Files (EXIT00)
 ====================

 Unit    Access Format  Status   Type       Ident (file)
 -------------------------------------------------------
   3      SEQ    FORM   TRANSP  NORMAL      LOGFILE
                                          ( logfile )


 Buffered I/O statistics
 =======================
 Memory available:                     67108864
 Number of records fitting in memory:     16131
 Input :   0.1% of                       125308  *4k bytes
 Output:   1.0% of                        20788  *4k bytes
 Records from serial files evicted:         586
                    others evicted:         758
 Hash table lookups:     315433 with      78396 conflicts ( 24.85%)

 ***************************************************************************************************
 (LOGFILE)
 <Mar23-2019> <10:00:01>  ADF 2018  RunTime: Mar23-2019 10:00:01  Nodes: 1  Procs: 1
 <Mar23-2019> <10:00:01>  Xenon (QZ, all electron, 18S 15P 8D 3F)
 <Mar23-2019> <10:00:01>  RunType   : CREATE
 <Mar23-2019> <10:00:01>  Net Charge: 0 (Nuclei minus Electrons)
 <Mar23-2019> <10:00:01>  Symmetry  : ATOM
  Coordinates
    Atom         X           Y           Z   (Angstrom)
    1.Xe        0.000000    0.000000    0.000000
 <Mar23-2019> <10:00:01>  >>>> CORORT
 <Mar23-2019> <10:00:01>  >>>> FITINT
 <Mar23-2019> <10:00:01>  >>>> CLSMAT
 <Mar23-2019> <10:00:01>  >>>> ORTHON
 <Mar23-2019> <10:00:01>  >>>> GENPT
 <Mar23-2019> <10:00:01>  Block Length=  94
 <Mar23-2019> <10:00:01>  >>>> PTBAS
 <Mar23-2019> <10:00:01>  >>>> CYCLE
 <Mar23-2019> <10:00:02>  CalcFitR12Fit
 <Mar23-2019> <10:00:02>  CalcFitCoeff
 <Mar23-2019> <10:00:05>              |Error|         MaxErr       Wt(A-DIIS)
 <Mar23-2019> <10:00:05>      1      0.00000000      0.00000000
 <Mar23-2019> <10:00:05>      2    308.87084769     42.12126433    100.0
 <Mar23-2019> <10:00:05>      3    109.00399324     22.48859695    100.0
 <Mar23-2019> <10:00:05>      4     17.25362896      2.97263489    100.0
 <Mar23-2019> <10:00:06>      5      8.99878973      2.14646446    100.0
 <Mar23-2019> <10:00:06>      6      2.28670506      0.43404145    100.0
 <Mar23-2019> <10:00:06>      7      1.31160761      0.30577557    100.0
 <Mar23-2019> <10:00:06>      8      0.77739125      0.17455894    100.0
 <Mar23-2019> <10:00:07>      9      0.39842477      0.09169825     91.6
 <Mar23-2019> <10:00:07>     10      0.19628509      0.04466104     44.1
 <Mar23-2019> <10:00:07>     11      0.04626179      0.01057221      9.7
 <Mar23-2019> <10:00:07>     12      0.00240741      0.00054908      0.0
 <Mar23-2019> <10:00:08>     13      0.00000267      0.00000038      0.0
 <Mar23-2019> <10:00:08>     14      0.00000015      0.00000003      0.0
 <Mar23-2019> <10:00:08>     15      0.00000001      0.00000000      0.0
 <Mar23-2019> <10:00:08>  SCF converged
 <Mar23-2019> <10:00:08>     16      0.00000000      0.00000000      0.0
 <Mar23-2019> <10:00:09>  >>>> POPAN
 <Mar23-2019> <10:00:09>  >>>> DEBYE
 <Mar23-2019> <10:00:09>  NORMAL TERMINATION
 <Mar23-2019> <10:00:09>  END


 Parallel Execution: Process Information
 ==============================================================================
 Rank   Node Name                              NodeID   MyNodeRank  NodeMaster
    0   vladimir-kubuntu                          0          0          0
    1   vladimir-kubuntu                          0          1         -1
    2   vladimir-kubuntu                          0          2         -1
    3   vladimir-kubuntu                          0          3         -1
 ==============================================================================


May use up to 7569MB of RAM as shared memory on node 0
 
Title Xe

ATOMS
 Xe        0.0000000000 0.0000000000 0.0000000000
END

CHARGE 0 0

XC
  HartreeFock
END

NUMERICALQUALITY excellent

EPRINT
  SFO NOEIG NOOVL NOORBPOP
  SCF NOPOP
END

NOPRINT BAS FUNCTIONS

TOTALENERGY
NOTOTEN

Fragments
Xe t21.Xe
End

 *******************************************************************************
 *                                                                             *
 *  -------------------------------------                                      *
 *   Amsterdam Density Functional  (ADF)         2018                          *
 *  -------------------------------------                                      *
 *                                               r70630 2018-11-24             *
 *                                                                             *
 *                                                                             *
 *                              =================                              *
 *                              |               |                              *
 *                              |     A D F     |                              *
 *                              |               |                              *
 *                              =================                              *
 *                                                                             *
 *                                                                             *
 *   Online information and documentation:  https://www.scm.com/support/       *
 *   E-mail:  support@scm.com   info@scm.com                                   *
 *                                                                             *
 *   Scientific publications using ADF results must be properly referenced     *
 *   See the User Manuals (or the web site) for recommended citations          *
 *   The terms and conditions of the End User License Agreement apply to       *
 *   the use of ADF, https://www.scm.com/license-terms/                        *
 *                                                                             *
 **********************  x86_64_linux_intel / intelmpi  ************************
 
 Licensed to: Mr. Vladimir Konjkov / Florida Institute of Technology / Melbourne / Florida / USA
 SCM User ID: u21173
  
 ADF 2018  RunTime: Mar23-2019 10:00:09  Nodes: 1  Procs: 4

 Temporary files are created in /tmp/kid_0.1011539574


Communication costs MPI_COMM_WORLD:      0.254 usec per message,   0.0036 usec per 8-byte item
Communication costs for intra-node:      0.294 usec per message,   0.0047 usec per 8-byte item

 Xe



 ===========================
 A T T A C H E D   F I L E S
 ===========================
  



 ===============================
 M O D E L   P A R A M E T E R S
 ===============================
  
 DENSITY FUNCTIONAL POTENTIAL (scf)
    Hybrid:                            HARTREEFOCK                             == Not Default ==

 SPIN  (restricted / unrestr.)
    Molecule:                          Restricted                               
    Fragments:                         Restricted                               

 OTHER ASPECTS
    Relativistic Corrections:          ---                                      

    Nuclear Charge Density Model:      Point Charge Nuclei                      
    Core Treatment:                    Frozen Orbital(s)                        

    Hyperfine or Zeeman Interaction:   ---                                      


 Fragment File(s)
 ----------------
 Xe:
         file : t21.Xe
         jobid: ADF 2018  RunTime: Mar23-2019 10:00:01  Nodes: 1  Procs: 1
         title: Xenon (QZ, all electron, 18S 15P 8D 3F)



                                        ************************************
                                        *  R U N   T Y P E : SINGLE POINT  *
                                        ************************************
  



 ===============
 G E O M E T R Y  ***  Single Atom  ***
 ===============
  

 ATOMS
 =====                            X Y Z                    CHARGE
                                (Angstrom)             Nucl     +Core       At.Mass
                       --------------------------    ----------------       -------
    1  Xe              0.0000    0.0000    0.0000     54.00     54.00      131.9042


 FRAGMENTS
 =========                                     Atoms in this Fragment     Cart. coord.s (Angstrom)
                                               -------------------------------------------------------
    1  Xe                                                1  Xe           0.0000    0.0000    0.0000



 =====================================
 S Y M M E T R Y ,   E L E C T R O N S
 =====================================
  
 Symmetry: ATOM

 Irreducible Representations, including subspecies
 -------------------------------------------------
 S
 P:x  P:y  P:z
 D:z2  D:x2-y2  D:xy  D:xz  D:yz
 F:z3  F:z  F:xyz  F:z2x  F:z2y  F:x  F:y


 Configuration of Valence Electrons
 ==================================
 ( determined in the SCF procedure )

 Total:   54

 Net Charge: 0 (Nuclei minus Electrons)

 Aufbau principle for MO occupations will be applied through SCF cycle no.     150
 Thereafter, the program will assign electrons to MOs that are spatially
 similar to the occupied MOs in a "reference" cycle ("KeepOrbitals").
 The reference cycle is always the PREVIOUS cycle: it will evolve with
 the SCF procedure.



 =======
 S F O s  ***  (Symmetrized Fragment Orbitals)  ***
 =======
  
 SFOs are linear combinations of (valence) Fragment Orbitals (FOs), such that the SFOs transform as the
 irreducible representations of the (molecular) symmetry group. Each SFO is therefore characterized by
 an irrep of the molecule and by a few (or only one) generating FOs.
 The SFOs constitute a symmetry-adapted basis for the Fock matrix. The MO eigenvector coefficients in
 this basis provide a direct interpretation of the MOs in terms of Frontier Orbital Theory.

 The SFOs are combined with auxiliary Core Functions (CFs) to ensure orthogonalization on the (frozen)
 Core Orbitals (COs). The Core-orthogonalized SFOs (CSFOs) constitute the true Fock basis.

 The FOs, and hence also the (C)SFOs are combinations of the elementary basis functions (BAS). The basis
 functions that participate in the description of the SFOs depend on the irrep. The indices of the
 involved functions are printed below for each irrep.
 (The complete list of primitive basis functions is printed in another section)

 Total nr. of (C)SFOs (summation over all irreps) :   124

 NOTE: a (C)SFO that is defined as a combination of more than one FO is usually NOT normalized.



                                       === S ===
 Nr. of SFOs :   18
 Cartesian basis functions that participate in this irrep (total number =    18) :
      1     2     3     4     5     6     7     8     9    10
     11    12    13    14    15    16    17    18

    SFO  (index         Fragment          Generating    Expansion in Fragment Orbitals
  indx  incl.CFs)   Occup   Orb.Energy   FragmentType  Coeff.   Orbital     on Fragment
 --------------------------------------------------------------------------------------
     1       1      2.000   -1224.398 au  Xe            1.00      1 S               1
                        (  -33317.571 eV)
     2       2      2.000    -189.340 au  Xe            1.00      2 S               1
                        (   -5152.209 eV)
     3       3      2.000     -40.175 au  Xe            1.00      3 S               1
                        (   -1093.230 eV)
     4       4      2.000      -7.856 au  Xe            1.00      4 S               1
                        (    -213.777 eV)
     5       5      2.000      -0.944 au  Xe            1.00      5 S               1
                        (     -25.699 eV)
     6       6       --         0.062 au  Xe            1.00      6 S               1
                        (       1.679 eV)
     7       7       --         0.391 au  Xe            1.00      7 S               1
                        (      10.644 eV)
     8       8       --         1.512 au  Xe            1.00      8 S               1
                        (      41.132 eV)
     9       9       --         4.939 au  Xe            1.00      9 S               1
                        (     134.387 eV)
    10      10       --        14.728 au  Xe            1.00     10 S               1
                        (     400.762 eV)
    11      11       --        41.085 au  Xe            1.00     11 S               1
                        (    1117.990 eV)
    12      12       --       114.662 au  Xe            1.00     12 S               1
                        (    3120.124 eV)
    13      13       --       345.470 au  Xe            1.00     13 S               1
                        (    9400.711 eV)
    14      14       --      1185.396 au  Xe            1.00     14 S               1
                        (   32256.272 eV)
    15      15       --      4757.770 au  Xe            1.00     15 S               1
                        (  129465.510 eV)
    16      16       --     24980.790 au  Xe            1.00     16 S               1
                        (  679761.879 eV)
    17      17       --    204404.535 au  Xe            1.00     17 S               1
                        ( 5562130.405 eV)
    18      18       --   3361597.229 au  Xe            1.00     18 S               1
                        (91473714.823 eV)



                                       === P:x ===
 Nr. of SFOs :   15
 Cartesian basis functions that participate in this irrep (total number =    15) :
     19    22    25    28    31    34    37    40    43    46
     49    52    55    58    61

    SFO  (index         Fragment          Generating    Expansion in Fragment Orbitals
  indx  incl.CFs)   Occup   Orb.Energy   FragmentType  Coeff.   Orbital     on Fragment
 --------------------------------------------------------------------------------------
     1       1      2.000    -177.783 au  Xe            1.00      1 P:x             1
                        (   -4837.712 eV)
     2       2      2.000     -35.222 au  Xe            1.00      2 P:x             1
                        (    -958.432 eV)
     3       3      2.000      -6.008 au  Xe            1.00      3 P:x             1
                        (    -163.492 eV)
     4       4      2.000      -0.457 au  Xe            1.00      4 P:x             1
                        (     -12.444 eV)
     5       5       --         0.102 au  Xe            1.00      5 P:x             1
                        (       2.776 eV)
     6       6       --         0.450 au  Xe            1.00      6 P:x             1
                        (      12.241 eV)
     7       7       --         1.436 au  Xe            1.00      7 P:x             1
                        (      39.077 eV)
     8       8       --         4.119 au  Xe            1.00      8 P:x             1
                        (     112.086 eV)
     9       9       --        11.564 au  Xe            1.00      9 P:x             1
                        (     314.677 eV)
    10      10       --        32.491 au  Xe            1.00     10 P:x             1
                        (     884.129 eV)
    11      11       --        97.691 au  Xe            1.00     11 P:x             1
                        (    2658.314 eV)
    12      12       --       368.818 au  Xe            1.00     12 P:x             1
                        (   10036.056 eV)
    13      13       --      1919.139 au  Xe            1.00     13 P:x             1
                        (   52222.441 eV)
    14      14       --     15786.089 au  Xe            1.00     14 P:x             1
                        (  429561.336 eV)
    15      15       --    174294.471 au  Xe            1.00     15 P:x             1
                        ( 4742793.884 eV)



                                       === P:y ===
 Nr. of SFOs :   15
 Cartesian basis functions that participate in this irrep (total number =    15) :
     20    23    26    29    32    35    38    41    44    47
     50    53    56    59    62

    SFO  (index         Fragment          Generating    Expansion in Fragment Orbitals
  indx  incl.CFs)   Occup   Orb.Energy   FragmentType  Coeff.   Orbital     on Fragment
 --------------------------------------------------------------------------------------
     1       1      2.000    -177.783 au  Xe            1.00      1 P:y             1
                        (   -4837.712 eV)
     2       2      2.000     -35.222 au  Xe            1.00      2 P:y             1
                        (    -958.432 eV)
     3       3      2.000      -6.008 au  Xe            1.00      3 P:y             1
                        (    -163.492 eV)
     4       4      2.000      -0.457 au  Xe            1.00      4 P:y             1
                        (     -12.444 eV)
     5       5       --         0.102 au  Xe            1.00      5 P:y             1
                        (       2.776 eV)
     6       6       --         0.450 au  Xe            1.00      6 P:y             1
                        (      12.241 eV)
     7       7       --         1.436 au  Xe            1.00      7 P:y             1
                        (      39.077 eV)
     8       8       --         4.119 au  Xe            1.00      8 P:y             1
                        (     112.086 eV)
     9       9       --        11.564 au  Xe            1.00      9 P:y             1
                        (     314.677 eV)
    10      10       --        32.491 au  Xe            1.00     10 P:y             1
                        (     884.129 eV)
    11      11       --        97.691 au  Xe            1.00     11 P:y             1
                        (    2658.314 eV)
    12      12       --       368.818 au  Xe            1.00     12 P:y             1
                        (   10036.056 eV)
    13      13       --      1919.139 au  Xe            1.00     13 P:y             1
                        (   52222.441 eV)
    14      14       --     15786.089 au  Xe            1.00     14 P:y             1
                        (  429561.336 eV)
    15      15       --    174294.471 au  Xe            1.00     15 P:y             1
                        ( 4742793.884 eV)



                                       === P:z ===
 Nr. of SFOs :   15
 Cartesian basis functions that participate in this irrep (total number =    15) :
     21    24    27    30    33    36    39    42    45    48
     51    54    57    60    63

    SFO  (index         Fragment          Generating    Expansion in Fragment Orbitals
  indx  incl.CFs)   Occup   Orb.Energy   FragmentType  Coeff.   Orbital     on Fragment
 --------------------------------------------------------------------------------------
     1       1      2.000    -177.783 au  Xe            1.00      1 P:z             1
                        (   -4837.712 eV)
     2       2      2.000     -35.222 au  Xe            1.00      2 P:z             1
                        (    -958.432 eV)
     3       3      2.000      -6.008 au  Xe            1.00      3 P:z             1
                        (    -163.492 eV)
     4       4      2.000      -0.457 au  Xe            1.00      4 P:z             1
                        (     -12.444 eV)
     5       5       --         0.102 au  Xe            1.00      5 P:z             1
                        (       2.776 eV)
     6       6       --         0.450 au  Xe            1.00      6 P:z             1
                        (      12.241 eV)
     7       7       --         1.436 au  Xe            1.00      7 P:z             1
                        (      39.077 eV)
     8       8       --         4.119 au  Xe            1.00      8 P:z             1
                        (     112.086 eV)
     9       9       --        11.564 au  Xe            1.00      9 P:z             1
                        (     314.677 eV)
    10      10       --        32.491 au  Xe            1.00     10 P:z             1
                        (     884.129 eV)
    11      11       --        97.691 au  Xe            1.00     11 P:z             1
                        (    2658.314 eV)
    12      12       --       368.818 au  Xe            1.00     12 P:z             1
                        (   10036.056 eV)
    13      13       --      1919.139 au  Xe            1.00     13 P:z             1
                        (   52222.441 eV)
    14      14       --     15786.089 au  Xe            1.00     14 P:z             1
                        (  429561.336 eV)
    15      15       --    174294.471 au  Xe            1.00     15 P:z             1
                        ( 4742793.884 eV)



                                       === D:z2 ===
 Nr. of SFOs :    8
 Cartesian basis functions that participate in this irrep (total number =    24) :
     64    67    69    70    73    75    76    79    81    82
     85    87    88    91    93    94    97    99   100   103
    105   106   109   111

    SFO  (index         Fragment          Generating    Expansion in Fragment Orbitals
  indx  incl.CFs)   Occup   Orb.Energy   FragmentType  Coeff.   Orbital     on Fragment
 --------------------------------------------------------------------------------------
     1       1      2.000     -26.119 au  Xe            1.00      1 D:z2            1
                        (    -710.726 eV)
     2       2      2.000      -2.778 au  Xe            1.00      2 D:z2            1
                        (     -75.588 eV)
     3       3       --         0.243 au  Xe            1.00      3 D:z2            1
                        (       6.610 eV)
     4       4       --         0.958 au  Xe            1.00      4 D:z2            1
                        (      26.079 eV)
     5       5       --         3.572 au  Xe            1.00      5 D:z2            1
                        (      97.201 eV)
     6       6       --        11.706 au  Xe            1.00      6 D:z2            1
                        (     318.535 eV)
     7       7       --        40.003 au  Xe            1.00      7 D:z2            1
                        (    1088.531 eV)
     8       8       --       182.080 au  Xe            1.00      8 D:z2            1
                        (    4954.638 eV)



                                       === D:x2-y2 ===
 Nr. of SFOs :    8
 Cartesian basis functions that participate in this irrep (total number =    16) :
     64    67    70    73    76    79    82    85    88    91
     94    97   100   103   106   109

    SFO  (index         Fragment          Generating    Expansion in Fragment Orbitals
  indx  incl.CFs)   Occup   Orb.Energy   FragmentType  Coeff.   Orbital     on Fragment
 --------------------------------------------------------------------------------------
     1       1      2.000     -26.119 au  Xe            1.00      1 D:x2-y2         1
                        (    -710.726 eV)
     2       2      2.000      -2.778 au  Xe            1.00      2 D:x2-y2         1
                        (     -75.588 eV)
     3       3       --         0.243 au  Xe            1.00      3 D:x2-y2         1
                        (       6.610 eV)
     4       4       --         0.958 au  Xe            1.00      4 D:x2-y2         1
                        (      26.079 eV)
     5       5       --         3.572 au  Xe            1.00      5 D:x2-y2         1
                        (      97.201 eV)
     6       6       --        11.706 au  Xe            1.00      6 D:x2-y2         1
                        (     318.535 eV)
     7       7       --        40.003 au  Xe            1.00      7 D:x2-y2         1
                        (    1088.531 eV)
     8       8       --       182.080 au  Xe            1.00      8 D:x2-y2         1
                        (    4954.638 eV)



                                       === D:xy ===
 Nr. of SFOs :    8
 Cartesian basis functions that participate in this irrep (total number =     8) :
     65    71    77    83    89    95   101   107

    SFO  (index         Fragment          Generating    Expansion in Fragment Orbitals
  indx  incl.CFs)   Occup   Orb.Energy   FragmentType  Coeff.   Orbital     on Fragment
 --------------------------------------------------------------------------------------
     1       1      2.000     -26.119 au  Xe            1.00      1 D:xy            1
                        (    -710.726 eV)
     2       2      2.000      -2.778 au  Xe            1.00      2 D:xy            1
                        (     -75.588 eV)
     3       3       --         0.243 au  Xe            1.00      3 D:xy            1
                        (       6.610 eV)
     4       4       --         0.958 au  Xe            1.00      4 D:xy            1
                        (      26.079 eV)
     5       5       --         3.572 au  Xe            1.00      5 D:xy            1
                        (      97.201 eV)
     6       6       --        11.706 au  Xe            1.00      6 D:xy            1
                        (     318.535 eV)
     7       7       --        40.003 au  Xe            1.00      7 D:xy            1
                        (    1088.531 eV)
     8       8       --       182.080 au  Xe            1.00      8 D:xy            1
                        (    4954.638 eV)



                                       === D:xz ===
 Nr. of SFOs :    8
 Cartesian basis functions that participate in this irrep (total number =     8) :
     66    72    78    84    90    96   102   108

    SFO  (index         Fragment          Generating    Expansion in Fragment Orbitals
  indx  incl.CFs)   Occup   Orb.Energy   FragmentType  Coeff.   Orbital     on Fragment
 --------------------------------------------------------------------------------------
     1       1      2.000     -26.119 au  Xe            1.00      1 D:xz            1
                        (    -710.726 eV)
     2       2      2.000      -2.778 au  Xe            1.00      2 D:xz            1
                        (     -75.588 eV)
     3       3       --         0.243 au  Xe            1.00      3 D:xz            1
                        (       6.610 eV)
     4       4       --         0.958 au  Xe            1.00      4 D:xz            1
                        (      26.079 eV)
     5       5       --         3.572 au  Xe            1.00      5 D:xz            1
                        (      97.201 eV)
     6       6       --        11.706 au  Xe            1.00      6 D:xz            1
                        (     318.535 eV)
     7       7       --        40.003 au  Xe            1.00      7 D:xz            1
                        (    1088.531 eV)
     8       8       --       182.080 au  Xe            1.00      8 D:xz            1
                        (    4954.638 eV)



                                       === D:yz ===
 Nr. of SFOs :    8
 Cartesian basis functions that participate in this irrep (total number =     8) :
     68    74    80    86    92    98   104   110

    SFO  (index         Fragment          Generating    Expansion in Fragment Orbitals
  indx  incl.CFs)   Occup   Orb.Energy   FragmentType  Coeff.   Orbital     on Fragment
 --------------------------------------------------------------------------------------
     1       1      2.000     -26.119 au  Xe            1.00      1 D:yz            1
                        (    -710.726 eV)
     2       2      2.000      -2.778 au  Xe            1.00      2 D:yz            1
                        (     -75.588 eV)
     3       3       --         0.243 au  Xe            1.00      3 D:yz            1
                        (       6.610 eV)
     4       4       --         0.958 au  Xe            1.00      4 D:yz            1
                        (      26.079 eV)
     5       5       --         3.572 au  Xe            1.00      5 D:yz            1
                        (      97.201 eV)
     6       6       --        11.706 au  Xe            1.00      6 D:yz            1
                        (     318.535 eV)
     7       7       --        40.003 au  Xe            1.00      7 D:yz            1
                        (    1088.531 eV)
     8       8       --       182.080 au  Xe            1.00      8 D:yz            1
                        (    4954.638 eV)



                                       === F:z3 ===
 Nr. of SFOs :    3
 Cartesian basis functions that participate in this irrep (total number =     9) :
    114   119   121   124   129   131   134   139   141

    SFO  (index         Fragment          Generating    Expansion in Fragment Orbitals
  indx  incl.CFs)   Occup   Orb.Energy   FragmentType  Coeff.   Orbital     on Fragment
 --------------------------------------------------------------------------------------
     1       1       --         0.374 au  Xe            1.00      1 F:z3            1
                        (      10.164 eV)
     2       2       --         1.053 au  Xe            1.00      2 F:z3            1
                        (      28.646 eV)
     3       3       --         2.217 au  Xe            1.00      3 F:z3            1
                        (      60.336 eV)



                                       === F:z ===
 Nr. of SFOs :    3
 Cartesian basis functions that participate in this irrep (total number =     6) :
    114   119   124   129   134   139

    SFO  (index         Fragment          Generating    Expansion in Fragment Orbitals
  indx  incl.CFs)   Occup   Orb.Energy   FragmentType  Coeff.   Orbital     on Fragment
 --------------------------------------------------------------------------------------
     1       1       --         0.374 au  Xe            1.00      1 F:z             1
                        (      10.164 eV)
     2       2       --         1.053 au  Xe            1.00      2 F:z             1
                        (      28.646 eV)
     3       3       --         2.217 au  Xe            1.00      3 F:z             1
                        (      60.336 eV)



                                       === F:xyz ===
 Nr. of SFOs :    3
 Cartesian basis functions that participate in this irrep (total number =     3) :
    116   126   136

    SFO  (index         Fragment          Generating    Expansion in Fragment Orbitals
  indx  incl.CFs)   Occup   Orb.Energy   FragmentType  Coeff.   Orbital     on Fragment
 --------------------------------------------------------------------------------------
     1       1       --         0.374 au  Xe            1.00      1 F:xyz           1
                        (      10.164 eV)
     2       2       --         1.053 au  Xe            1.00      2 F:xyz           1
                        (      28.646 eV)
     3       3       --         2.217 au  Xe            1.00      3 F:xyz           1
                        (      60.336 eV)



                                       === F:z2x ===
 Nr. of SFOs :    3
 Cartesian basis functions that participate in this irrep (total number =     9) :
    112   115   117   122   125   127   132   135   137

    SFO  (index         Fragment          Generating    Expansion in Fragment Orbitals
[...]
              15        0.000      0.47578476264459E+04    129467.621
 P
               1        6.000     -0.17778190341883E+03     -4837.692               1.25E-07
               2        6.000     -0.35221444486661E+02      -958.424              -4.68E-08
               3        6.000     -0.60081735278637E+01      -163.491               2.65E-07
               4        6.000     -0.45733086403800E+00       -12.445               1.11E-06
               5        0.000      0.10227911012066E+00         2.783
               6        0.000      0.45258884942047E+00        12.316
               7        0.000      0.14513708764010E+01        39.494
               8        0.000      0.41887714128803E+01       113.982
               9        0.000      0.11680920795113E+02       317.854
              10        0.000      0.32448697694809E+02       882.974
              11        0.000      0.97711404995763E+02      2658.863
              12        0.000      0.36859280957263E+03     10029.921
              13        0.000      0.19187951288613E+04     52213.072
              14        0.000      0.15787211371445E+05    429591.879
 D
               1       10.000     -0.26118671753809E+02      -710.725              -2.25E-08
               2       10.000     -0.27777654039745E+01       -75.587               4.58E-07
               3        0.000      0.24290258134513E+00         6.610
               4        0.000      0.95834910387962E+00        26.078
               5        0.000      0.35720068248200E+01        97.199
               6        0.000      0.11705706934296E+02       318.528
               7        0.000      0.40003411912404E+02      1088.548
               8        0.000      0.18208165809833E+03      4954.694
 F
               1        0.000      0.37345709234190E+00        10.162
               2        0.000      0.10521614447434E+01        28.631
               3        0.000      0.22074709781356E+01        60.068
  
 HOMO :        4 P                -0.45733086403800E+00
 LUMO :        6 S                 0.61686982667918E-01
  


 Orbital Energies, all Irreps
 ========================================

 Irrep        no.  (spin)   Occup              E (au)                E (eV)
 ---------------------------------------------------------------------------
 S             1             2.00       -0.12243974590544E+04    -33317.5501
 S             2             2.00       -0.18933973073358E+03     -5152.1962
 P             1             6.00       -0.17778190341883E+03     -4837.6917
 S             3             2.00       -0.40175430062517E+02     -1093.2291
 P             2             6.00       -0.35221444486661E+02      -958.4243
 D             1            10.00       -0.26118671753809E+02      -710.7252
 S             4             2.00       -0.78561157323808E+01      -213.7758
 P             3             6.00       -0.60081735278637E+01      -163.4907
 D             2            10.00       -0.27777654039745E+01       -75.5868
 S             5             2.00       -0.94442751399548E+00       -25.6992
 P             4             6.00       -0.45733086403800E+00       -12.4446
 S             6             0.00        0.61686982667918E-01         1.6786
 P             5             0.00        0.10227911012066E+00         2.7832
 D             3             0.00        0.24290258134513E+00         6.6097
 F             1             0.00        0.37345709234190E+00        10.1623
 S             7             0.00        0.39115587012711E+00        10.6439
 P             6             0.00        0.45258884942047E+00        12.3156
 D             4             0.00        0.95834910387962E+00        26.0780
 F             2             0.00        0.10521614447434E+01        28.6308
 P             7             0.00        0.14513708764010E+01        39.4938
 S             8             0.00        0.15116135422395E+01        41.1331
 F             3             0.00        0.22074709781356E+01        60.0683
 D             5             0.00        0.35720068248200E+01        97.1993
 P             8             0.00        0.41887714128803E+01       113.9823
 S             9             0.00        0.49386999895566E+01       134.3889
 P             9             0.00        0.11680920795113E+02       317.8540
 D             6             0.00        0.11705706934296E+02       318.5285
 S            10             0.00        0.14728654145783E+02       400.7871
 P            10             0.00        0.32448697694809E+02       882.9740
 D             7             0.00        0.40003411912404E+02      1088.5482
 S            11             0.00        0.41093924793065E+02      1118.2226
 P            11             0.00        0.97711404995763E+02      2658.8626
 S            12             0.00        0.11468590682173E+03      3120.7623
 D             8             0.00        0.18208165809833E+03      4954.6940
 S            13             0.00        0.34551023388816E+03      9401.8118
 P            12             0.00        0.36859280957263E+03     10029.9207
 S            14             0.00        0.11854736681280E+04     32258.3798
 P            13             0.00        0.19187951288613E+04     52213.0721
 S            15             0.00        0.47578476264459E+04    129467.6213
 P            14             0.00        0.15787211371445E+05    429591.8792
 S            16             0.00        0.24980847684032E+05    679763.4521
 P            15             0.00        0.17429596446394E+06   4742834.5102
 S            17             0.00        0.20440445178926E+06   5562128.1362
 S            18             0.00        0.33615970587493E+07  91473710.1834


 All Electron Calculation, thus no Orbital Energies of the Core Orbitals are calculated



 =======================
 T O T A L   E N E R G Y  ***  (contributions)  ***
 =======================
  

*** Note ***

The requirements to the integration accuracy are somewhat higher than for bond energies.
One can expect an accuracy of roughly (accint-2) decimal places, where accint is the
general integration accuracy parameter.
The Coulomb energy is the sum of the Hartree energy (electron-electron Coulomb interaction)
and the nuclear-electron attraction energy. It includes the correction for the first-order
fit error in the Hartree energy.
The potential energy is the sum of the nuclear repulsion energy, the Coulomb energy,
and the exchange-correlation energy.

Kinetic energy           =         7232.139888625591

Nuclear repulsion energy =            0.000000000000
Coulomb energy           =       -14285.177267023009
XC energy                =         -179.099614527167
Total potential energy   =       -14464.276881550177

----------------------------------------------------
Total energy             =        -7232.136992924586
Virial theorem           =            1.999999599607
----------------------------------------------------

 Gross Charges per Atom (Z minus electrons)
 ==========================================
             0.0000
 Net Total:  0.00000000



 =================================================================
 M U L T I P O L E   D E R I V E D   C H A R G E   A N A L Y S I S
 =================================================================

 This charge analysis uses the atomic multipoles (obtained from the fitted density) up to some level X,
 and reconstructs these multipoles exactly (up to level X) by distributing charges over all atoms.
 This is achieved by using Lagrange multipliers and a weight function to keep the multipoles local.

 Dummy atoms can be included (by setting INCDUM in MDC-block to 1) to obtain a fractional charge.
 This is generally useful and necessary only for small symmetrical molecules, when there are not
 enough degrees of freedom to reconstruct the multipoles.

 Since the atomic multipoles are reconstructed up to level X,
 the molecular multipoles are represented also up to level X.
 The recommended level is to reconstruct up to quadrupole : -> MDC-q charges.

 See: M. Swart, P.Th. van Duijnen, J.G. Snijders, J.Comput.Chem., (2001), p. 79-88.

 ------------------------------------------------------------- 
 Atomic electronic multipole moments from SCF equations (a.u.)
 ------------------------------------------------------------- 

   atom        charge        dip-x     dip-y     dip-z      quad-xx   quad-xy   quad-xz   quad-yy   quad-yz   quad-zz
 --------------------------------------------------------------------------------------------------------------------
    1 Xe     0.000000     0.000000 -0.000000  0.000000    -0.000000 -0.000000 -0.000000 -0.000000  0.000000  0.000000

 --------------------------------------- 
 Multipole derived atomic charges (a.u.)
 --------------------------------------- 

 The MDC-m charges are just the Monopole terms in the multipole expansion, while for the MDC-d charges
 also the Dipoles are reconstructed. The usually preferred charges are the MDC-q charges.
 These reconstruct the Monopoles, Dipoles and Quadrupoles (both atomic AND molecular).

        Atom    Level:     MDC-m        MDC-d        MDC-q
 ---------------------------------------------------------
     1     Xe           0.000000     0.000000     0.000000

 ------------------------------------------------ 
 Average absolute deviations in atomic multipoles
 ------------------------------------------------ 

 Stated here are the average differences between the atomic multipoles
 and the reconstructed atomic multipoles (from the distributed charges).
 If these values are not zero, this means there are not enough degrees of freedom,
 to be able to reconstruct the atomic multipoles. (This usually happens only
 for small and/or highly symmetric molecules). If this is the case, one could add
 dummy atoms as extra point charges (and setting INCDUM in MDC-block to 1).

 Level:                                 MDC-d        MDC-q
 ---------------------------------------------------------
 Charge   (a.u.)                       0.0000       0.0000
 Dipole   (Debye)                      0.0000       0.0000
 Quad.    (a.u.)                       0.0000       0.0000

 --------------------------------------- 
 Represented molecular multipole moments
 --------------------------------------- 

 Given here are the Molecular multipole moments from the atomic charges, and from the Fit Density.
 Note that the atomic charges represent the latter, NOT the ones from the Exact density.

            Q (a.u.)             Dipole moment (Debye)                                          Quadrupole moment (a.u.)
                                 x         y         z              xx        xy        xz        yy        yz        zz
------------------------------------------------------------------------------------------------------------------------
MDC-m         0.0000        0.0000    0.0000    0.0000          0.0000    0.0000    0.0000    0.0000    0.0000    0.0000
MDC-d         0.0000        0.0000    0.0000    0.0000          0.0000    0.0000    0.0000    0.0000    0.0000    0.0000
MDC-q         0.0000        0.0000    0.0000    0.0000          0.0000    0.0000    0.0000    0.0000    0.0000    0.0000
 
Fit.Dens.     0.0000        0.0000   -0.0000    0.0000         -0.0000   -0.0000   -0.0000   -0.0000    0.0000    0.0000



 =============
 Dipole Moment  ***  (Debye)  ***
 =============
  
 Vector   :         0.00000000      0.00000000      0.00000000
 Magnitude:         0.00000000

 This molecular dipole moment is calculated with analytic integration



 =========================================
 Quadrupole Moment (Buckingham convention)  ***  (a.u.)  ***
 =========================================
  
      quad-xx        quad-xy        quad-xz        quad-yy        quad-yz        quad-zz
     -0.00000000     0.00000000     0.00000000     0.00000000     0.00000000     0.00000000

 This molecular quadrupole moment is calculated with analytic integration



 =======================================================================
 Electrostatic potential at the Nuclei due to electrons and other nuclei
 =======================================================================
  
         Atom                  Potential
         ----                  ---------
     1)   Xe                317.87195279
 
 
 ========================
 No memory problems found
 ========================
 
 Maximum number of active allocate calls:         722
 
 *******************************************************************************

                             A D F   E X I T
 NORMAL TERMINATION



 =================
 Timing Statistics
 =================
  
 Total Used :                     CPU=       26.32      System=        0.64     Elapsed=       27.24

 Calls  Section                     ( Mean, Percentage )
 ---------------------------------------------------------------------------------------------------
     3  ><      ................      0.00    0.02             0.00    0.00             0.00    0.02
     1  INIT    ................      0.49    1.88             0.00    0.39             0.75    2.74
     1  GEOMET  ................      0.03    0.12             0.03    5.17             0.06    0.24
     1  FRAGM   ................      0.01    0.04             0.00    0.47             0.01    0.05
     1  INPUTA  ................      0.00    0.01             0.00    0.00             0.00    0.01
     1  ATDEN   ................      0.01    0.03             0.00    0.46             0.01    0.04
     1  MAINSY  ................      0.02    0.06             0.00    0.01             0.02    0.06
     1  SYMFIT  ................      0.00    0.00             0.00    0.00             0.00    0.00
     1  CORORT  ................      0.00    0.00             0.00    0.00             0.00    0.00
     1  SYMORB  ................      0.00    0.01             0.00    0.00             0.00    0.01
     1  FITINT  ................      0.10    0.37             0.00    0.46             0.10    0.37
     1  CLSMAT  ................      0.00    0.01             0.00    0.00             0.00    0.01
     1  ORTHON  ................      0.01    0.04             0.00    0.00             0.01    0.04
     1  GENPT   ................      0.04    0.15             0.00    0.31             0.04    0.15
     1  PTBAS   ................      0.01    0.04             0.00    0.31             0.01    0.04
     7  FOCKY   ................      3.31   88.02             0.08   85.52             3.39   87.16
     7  FOCKTR  ................      0.00    0.13             0.00    1.94             0.01    0.17
     7  SDIIS   ................      0.00    0.10             0.00    0.10             0.00    0.10
     1  COREPS  ................      2.23    8.47             0.01    1.88             2.24    8.23
     1  POPAN   ................      0.09    0.33             0.01    1.41             0.10    0.35
     1  DEBYE   ................      0.00    0.02             0.00    0.00             0.00    0.02
     1  EXIT PROCEDURE .........      0.05    0.18             0.01    1.56             0.06    0.21


 Currently Open Files (EXIT00)
 ====================

 Unit    Access Format  Status   Type       Ident (file)
 -------------------------------------------------------
   3      SEQ    FORM   TRANSP  NORMAL      LOGFILE
                                          ( logfile )


 Buffered I/O statistics
 =======================
 Memory available:                     67108864
 Number of records fitting in memory:     16131
 Input :   0.2% of                       149817  *4k bytes
 Output:   2.1% of                        31883  *4k bytes
 Records from serial files evicted:        8877
                    others evicted:        4873
 Hash table lookups:     391602 with      47164 conflicts ( 12.04%)

 ***************************************************************************************************
 (LOGFILE)
 <Mar23-2019> <10:00:01>  ADF 2018  RunTime: Mar23-2019 10:00:01  Nodes: 1  Procs: 1
 <Mar23-2019> <10:00:01>  Xenon (QZ, all electron, 18S 15P 8D 3F)
 <Mar23-2019> <10:00:01>  RunType   : CREATE
 <Mar23-2019> <10:00:01>  Net Charge: 0 (Nuclei minus Electrons)
 <Mar23-2019> <10:00:01>  Symmetry  : ATOM
  Coordinates
    Atom         X           Y           Z   (Angstrom)
    1.Xe        0.000000    0.000000    0.000000
 <Mar23-2019> <10:00:01>  >>>> CORORT
 <Mar23-2019> <10:00:01>  >>>> FITINT
 <Mar23-2019> <10:00:01>  >>>> CLSMAT
 <Mar23-2019> <10:00:01>  >>>> ORTHON
 <Mar23-2019> <10:00:01>  >>>> GENPT
 <Mar23-2019> <10:00:01>  Block Length=  94
 <Mar23-2019> <10:00:01>  >>>> PTBAS
 <Mar23-2019> <10:00:01>  >>>> CYCLE
 <Mar23-2019> <10:00:02>  CalcFitR12Fit
 <Mar23-2019> <10:00:02>  CalcFitCoeff
 <Mar23-2019> <10:00:05>              |Error|         MaxErr       Wt(A-DIIS)
 <Mar23-2019> <10:00:05>      1      0.00000000      0.00000000
 <Mar23-2019> <10:00:05>      2    308.87084769     42.12126433    100.0
 <Mar23-2019> <10:00:05>      3    109.00399324     22.48859695    100.0
 <Mar23-2019> <10:00:05>      4     17.25362896      2.97263489    100.0
 <Mar23-2019> <10:00:06>      5      8.99878973      2.14646446    100.0
 <Mar23-2019> <10:00:06>      6      2.28670506      0.43404145    100.0
 <Mar23-2019> <10:00:06>      7      1.31160761      0.30577557    100.0
 <Mar23-2019> <10:00:06>      8      0.77739125      0.17455894    100.0
 <Mar23-2019> <10:00:07>      9      0.39842477      0.09169825     91.6
 <Mar23-2019> <10:00:07>     10      0.19628509      0.04466104     44.1
 <Mar23-2019> <10:00:07>     11      0.04626179      0.01057221      9.7
 <Mar23-2019> <10:00:07>     12      0.00240741      0.00054908      0.0
 <Mar23-2019> <10:00:08>     13      0.00000267      0.00000038      0.0
 <Mar23-2019> <10:00:08>     14      0.00000015      0.00000003      0.0
 <Mar23-2019> <10:00:08>     15      0.00000001      0.00000000      0.0
 <Mar23-2019> <10:00:08>  SCF converged
 <Mar23-2019> <10:00:08>     16      0.00000000      0.00000000      0.0
 <Mar23-2019> <10:00:09>  >>>> POPAN
 <Mar23-2019> <10:00:09>  >>>> DEBYE
 <Mar23-2019> <10:00:09>  NORMAL TERMINATION
 <Mar23-2019> <10:00:09>  END
 <Mar23-2019> <10:00:09>  ADF 2018  RunTime: Mar23-2019 10:00:09  Nodes: 1  Procs: 4
 <Mar23-2019> <10:00:10>  Xe
 <Mar23-2019> <10:00:10>  RunType   : SINGLE POINT
 <Mar23-2019> <10:00:10>  Net Charge: 0 (Nuclei minus Electrons)
 <Mar23-2019> <10:00:10>  Symmetry  : ATOM
 <Mar23-2019> <10:00:10>  >>>> FRAGM
  Coordinates
    Atom         X           Y           Z   (Angstrom)
    1.Xe        0.000000    0.000000    0.000000
 <Mar23-2019> <10:00:10>  >>>> CORORT
 <Mar23-2019> <10:00:10>  >>>> FITINT
 <Mar23-2019> <10:00:10>  >>>> CLSMAT
 <Mar23-2019> <10:00:10>  >>>> ORTHON
 <Mar23-2019> <10:00:10>  >>>> GENPT
 <Mar23-2019> <10:00:10>  Block Length= 111
 <Mar23-2019> <10:00:10>  >>>> PTBAS
 <Mar23-2019> <10:00:10>  >>>> CYCLE
 <Mar23-2019> <10:00:12>  CalcFitR12Fit
 <Mar23-2019> <10:00:12>  CalcFitCoeff
 <Mar23-2019> <10:00:19>  Orbital Data from active fragment used
 <Mar23-2019> <10:00:19>              |Error|         MaxErr       Wt(A-DIIS)
 <Mar23-2019> <10:00:19>      1      0.43969005      0.11447258
 <Mar23-2019> <10:00:21>      2      0.00517168      0.00187556    100.0
 <Mar23-2019> <10:00:24>      3      0.00019786      0.00005155    100.0
 <Mar23-2019> <10:00:26>      4      0.00002073      0.00000468      0.0
 <Mar23-2019> <10:00:29>      5      0.00000763      0.00000129      0.0
 <Mar23-2019> <10:00:31>      6      0.00000156      0.00000028      0.0
 <Mar23-2019> <10:00:34>  SCF converged
 <Mar23-2019> <10:00:34>      7      0.00000014      0.00000005      0.0
 <Mar23-2019> <10:00:36>   Total energy      -7232.13699292 a.u.
 <Mar23-2019> <10:00:36>  >>>> POPAN
 <Mar23-2019> <10:00:36>  >>>> DEBYE
 <Mar23-2019> <10:00:36>  NORMAL TERMINATION
 <Mar23-2019> <10:00:36>  END
