 
Create B   file=QZ4P-B
XC
  HartreeFock
End
  HartreeFock
RIHartreeFock
  UseMe True
  Quality Excellent
  DependencyThreshold 1.0E-8
End

 *******************************************************************************
 *                                                                             *
 *  -------------------------------------                                      *
 *   Amsterdam Density Functional  (ADF)         2018                          *
 *  -------------------------------------                                      *
 *                                               r70630 2018-11-24             *
 *                                                                             *
 *                                                                             *
 *                              =================                              *
 *                              |               |                              *
 *                              |     A D F     |                              *
 *                              |               |                              *
 *                              =================                              *
 *                                                                             *
 *                                                                             *
 *   Online information and documentation:  https://www.scm.com/support/       *
 *   E-mail:  support@scm.com   info@scm.com                                   *
 *                                                                             *
 *   Scientific publications using ADF results must be properly referenced     *
 *   See the User Manuals (or the web site) for recommended citations          *
 *   The terms and conditions of the End User License Agreement apply to       *
 *   the use of ADF, https://www.scm.com/license-terms/                        *
 *                                                                             *
 **********************  x86_64_linux_intel / intelmpi  ************************
 
 Licensed to: Mr. Vladimir Konjkov / Florida Institute of Technology / Melbourne / Florida / USA
 SCM User ID: u21173
  
 ADF 2018  RunTime: Mar23-2019 10:00:02  Nodes: 1  Procs: 1

 Temporary files are created in /tmp/kid_0.1848228464

 Boron (QZ, all electron, 7S 4P 2D 2F)



 ===========================
 A T T A C H E D   F I L E S
 ===========================
  
 CREATE - Data File:    QZ4P-B
                        Boron (QZ, all electron, 7S 4P 2D 2F)



 ===============================
 M O D E L   P A R A M E T E R S
 ===============================
  
 DENSITY FUNCTIONAL POTENTIAL (scf)
    Hybrid:                            HARTREEFOCK                             == Not Default ==

 SPIN  (restricted / unrestr.)
    Molecule:                          Restricted                               

 OTHER ASPECTS
    Relativistic Corrections:          ---                                      

    Nuclear Charge Density Model:      Point Charge Nuclei                      
    Core Treatment:                    Frozen Orbital(s)                        

    Hyperfine or Zeeman Interaction:   ---                                      



 =====================================
 S Y M M E T R Y ,   E L E C T R O N S
 =====================================
  
 Symmetry: ATOM

 Irreducible Representations, including subspecies
 -------------------------------------------------
 S
 P:x  P:y  P:z
 D:z2  D:x2-y2  D:xy  D:xz  D:yz
 F:z3  F:z  F:xyz  F:z2x  F:z2y  F:x  F:y


 Configuration of Valence Electrons
 ==================================

          Occupation Numbers
          -------------------------------------------------
 S        2*2
 P        1
 D        0
 F        0
          -------------------------------------------------

 Total:   5

 Net Charge: 0 (Nuclei minus Electrons)

 Preset values for MO occupations will be applied through SCF cycle no. 1000000
 Thereafter, the program will assign electrons to MOs that are spatially
 similar to the occupied MOs in a "reference" cycle ("KeepOrbitals").
 The reference cycle is always the PREVIOUS cycle: it will evolve with
 the SCF procedure.



 ================================
 (Slater-type)  F U N C T I O N S  ***  (Basis and Fit)  ***
 ================================
  

 Atom Type    1  (B)
 ==============

 Valence Basis Sets:  15
 -----------------------
   1 S    9.400000
   1 S    5.500000
   1 S    3.950000
   2 S    4.800000
   2 S    2.100000
   2 S    1.350000
   2 S    0.950000
   2 P    4.200000
   2 P    1.850000
   2 P    1.000000
   2 P    0.610000
   3 D    2.500000
   3 D    1.500000
   4 F    4.000000
   4 F    2.000000

 Charge Fitting Sets (for the computation of the Coulomb Potential):  32
 -----------------------------------------------------------------------
   1 S   18.800000
   1 S   14.380000
   1 S   11.000000
   1 S    7.270000
   2 S    8.870000
   2 S    6.440000
   2 S    4.680000
   2 S    3.390000
   3 S    3.600000
   3 S    2.750000
   3 S    2.100000
   3 S    1.600000
   3 S    1.220000
   2 P    9.700000
   2 P    6.500000
   2 P    4.360000
   3 P    4.290000
   3 P    3.060000
   3 P    2.190000
   3 P    1.560000
   3 D    8.400000
   3 D    5.690000
   3 D    3.850000
   4 D    3.460000
   4 D    2.450000
   4 F    9.500000
   4 F    5.960000
   4 F    3.740000
   5 F    2.950000
   5 G    8.200000
   5 G    4.630000
   5 G    2.610000


 BAS: List of all Elementary Cartesian Basis Functions
 =====================================================

 The numbering in the list below (to the right of the function characteristics) is referred
 to in print-outs of MO eigenvectors and Mulliken populations in the BAS representation
 (as contrasted to the SFO representation).

 Notes:
 1. The functions are characterized by a polynomial prefactor (powers of x,y,z and r) and
    an exponential decay factor alpha.
 2. Since the basis sets are specific for an atom TYPE, the individual functions occur on
    all atoms of that type.
 3. The word 'Core' in the left margin signals that it is a Core Function (CF) : not a
    degree of freedom in the valence set, but only used to ensure orthogonalization of
    the other valence basis functions on the frozen Core Orbitals.


 (power of) X  Y  Z  R     Alpha  on Atom
            ==========     =====     ==========

 B                                    1
                                  ---------------------------------------------------------------------------
            0  0  0  0     9.400      1
            0  0  0  0     5.500      2
            0  0  0  0     3.950      3
            0  0  0  1     4.800      4
            0  0  0  1     2.100      5
            0  0  0  1     1.350      6
            0  0  0  1     0.950      7
            1  0  0  0     4.200      8
            0  1  0  0     4.200      9
            0  0  1  0     4.200     10
            1  0  0  0     1.850     11
            0  1  0  0     1.850     12
            0  0  1  0     1.850     13
            1  0  0  0     1.000     14
            0  1  0  0     1.000     15
            0  0  1  0     1.000     16
            1  0  0  0     0.610     17
            0  1  0  0     0.610     18
            0  0  1  0     0.610     19
            2  0  0  0     2.500     20
            1  1  0  0     2.500     21
            1  0  1  0     2.500     22
            0  2  0  0     2.500     23
            0  1  1  0     2.500     24
            0  0  2  0     2.500     25
            2  0  0  0     1.500     26
            1  1  0  0     1.500     27
            1  0  1  0     1.500     28
            0  2  0  0     1.500     29
            0  1  1  0     1.500     30
            0  0  2  0     1.500     31
            3  0  0  0     4.000     32
            2  1  0  0     4.000     33
            2  0  1  0     4.000     34
            1  2  0  0     4.000     35
            1  1  1  0     4.000     36
            1  0  2  0     4.000     37
            0  3  0  0     4.000     38
            0  2  1  0     4.000     39
            0  1  2  0     4.000     40
            0  0  3  0     4.000     41
            3  0  0  0     2.000     42
            2  1  0  0     2.000     43
            2  0  1  0     2.000     44
            1  2  0  0     2.000     45
            1  1  1  0     2.000     46
            1  0  2  0     2.000     47
            0  3  0  0     2.000     48
            0  2  1  0     2.000     49
            0  1  2  0     2.000     50
            0  0  3  0     2.000     51

 Total number of charge fitting functions (nprimf)       149
 Total number of Cartesian basis functions (naos)         51
 Total number of Cartesian core functions  (ncos)          0



 BAS: List of all Elementary Cartesian Basis Functions
 =====================================================

 The numbering in the list below (to the right of the function characteristics) is referred
 to in print-outs of MO eigenvectors and Mulliken populations in the BAS representation
 (as contrasted to the SFO representation).

 Notes:
 1. The functions are characterized by a polynomial prefactor (powers of x,y,z and r) and
    an exponential decay factor alpha.
 2. Since the basis sets are specific for an atom TYPE, the individual functions occur on
    all atoms of that type.
 3. The word 'Core' in the left margin signals that it is a Core Function (CF) : not a
    degree of freedom in the valence set, but only used to ensure orthogonalization of
    the other valence basis functions on the frozen Core Orbitals.


 (power of) X  Y  Z  R     Alpha  on Atom
            ==========     =====     ==========

 B                                    1
                                  ---------------------------------------------------------------------------
            0  0  0  0     9.400      1
            0  0  0  0     5.500      2
            0  0  0  0     3.950      3
            0  0  0  1     4.800      4
            0  0  0  1     2.100      5
            0  0  0  1     1.350      6
            0  0  0  1     0.950      7
            1  0  0  0     4.200      8
            0  1  0  0     4.200      9
            0  0  1  0     4.200     10
            1  0  0  0     1.850     11
            0  1  0  0     1.850     12
            0  0  1  0     1.850     13
            1  0  0  0     1.000     14
            0  1  0  0     1.000     15
            0  0  1  0     1.000     16
            1  0  0  0     0.610     17
            0  1  0  0     0.610     18
            0  0  1  0     0.610     19
            2  0  0  0     2.500     20
            1  1  0  0     2.500     21
            1  0  1  0     2.500     22
            0  2  0  0     2.500     23
            0  1  1  0     2.500     24
            0  0  2  0     2.500     25
            2  0  0  0     1.500     26
            1  1  0  0     1.500     27
            1  0  1  0     1.500     28
            0  2  0  0     1.500     29
            0  1  1  0     1.500     30
            0  0  2  0     1.500     31
            3  0  0  0     4.000     32
            2  1  0  0     4.000     33
            2  0  1  0     4.000     34
            1  2  0  0     4.000     35
            1  1  1  0     4.000     36
            1  0  2  0     4.000     37
            0  3  0  0     4.000     38
            0  2  1  0     4.000     39
            0  1  2  0     4.000     40
            0  0  3  0     4.000     41
            3  0  0  0     2.000     42
            2  1  0  0     2.000     43
            2  0  1  0     2.000     44
            1  2  0  0     2.000     45
            1  1  1  0     2.000     46
            1  0  2  0     2.000     47
            0  3  0  0     2.000     48
            0  2  1  0     2.000     49
            0  1  2  0     2.000     50
            0  0  3  0     2.000     51
1
 ***************************************************************************************************



                                              ***********************
                                              *  T E C H N I C A L  *
                                              ***********************
  



 =============================================================
 P A R A L L E L I Z A T I O N  and  V E C T O R I Z A T I O N
 =============================================================
  
 Nr of parallel processes:                                1
 Maximum vector length in NumInt loops:                 128

 IO buffersize (Mb):                                     64.000000



 =====================
 S C F   U P D A T E S
 =====================
  
 Max. nr. of cycles:                               300
 Convergence criterion:                              0.0000000100
   secondary criterion:                              0.0000000100

 Mix parameter (when DIIS does not apply):           0.2000000000
 Special mix parameter for the first cycle:          1.0000000000
 Mixed ADIIS+DIIS will be used
    Max number of expansion vectors:                10
    Pure ADIIS when Max([F,P]) is above              0.1000000000
    Pure DIIS when Max([F,P]) is below               0.0010000000
 Automatic ElectronSmearing (in case of problematic SCF convergence) disabled



 =================
 P R E C I S I O N  ***  (General: NumInt, NeglectFunctionTails, ...)  ***
 =================
  

 NumInt:           Target precision:                12.0000000000
 -------           Initial precision:               10.0000000000
                   Min. precision (optimization):   10.0000000000

 Neglect Functions:          Basis functions:        0.1000000000E-13
 ------------------          Fit functions:          0.1000000000E-13



 ===========================
 L I N E A R   S C A L I N G
 ===========================
  

 Cut-off radii density fit:                        0.1000000000E-97
 Overlap cut-off criterion AO matrix elements:     0.1000000000E-97
 Cut-offs for Coulomb potential and fitted density:0.1000000000E-97
 Cut-off criterion for Coulomb multipole terms:    0.1000000000E-97
 Progressive Convergence parameter:                 0.000000000    
1
 ***************************************************************************************************



                                            ***************************
                                            *  C O M P U T A T I O N  *
                                            ***************************
  

 Number of elements of the density matrix on this node (used, total):      1326      1326



 ===========================================
 Numerical Integration : Fuzzy Cells (Becke)
 ===========================================
  
 Becke grid quality: VERYGOOD       
  
 Lebedev angular grid order:             min:  13 max:  41
 Nr. of radial points:                   min:  72 max:  72

 Total nr. of points:         72
 Nr. of blocks:                1
 Block length:                72
 Nr. of dummy points:          0


 Test of Precision of the Numerical Integration Grid
 ===================================================

 Integral of the Total Core Density:                   0.00000000000000



 ========================
 Density Fitting (zlmFit)
 ========================
  
 ZlmFit Fit Quality: VERYGOOD       
  
 Max L-expansion:                        min:   0 max:   0
 Nr. of radial interpolation points:     min: 170 max: 170



 ======================
 RI Hartree-Fock Scheme
 ======================
  
 Fit Set Quality     : EXCELLENT
 Integration Quality : EXCELLENT
 Threshold Quality   : EXCELLENT
 Response Quality    : DEFAULT
 Is Range Separated  :  F
 
 RIHartreeFock Dependency: number of modified vectors:           0



 =====
 S C F  ***  ScaSCF  ***
 =====
  

 CYCLE    1
 SCF Error: norm([F,P])=      0.000000000000, max([F,P])=      0.000000000000
 orbitals (Q,E):
 ---------------
 S :1...7            ( 2.00   -12.5000)  ( 2.00    -3.1247)  ( 0.00    -1.3887)  ( 0.00    -0.7744)
                     ( 0.00     1.0033)  ( 0.00    13.0248)  ( 0.00   108.0592)
 P :1...4            ( 1.00    -3.0974)  ( 0.00    -1.3602)  ( 0.00    -0.7258)  ( 0.00     2.1235)
 D :1...2            ( 0.00    -1.3850)  ( 0.00    -0.1562)
 F :1...2            ( 0.00    -0.5645)  ( 0.00     4.1246)

 CYCLE    2
  SDIIS (wt  0.000):  1.0000  0.0000
 A-DIIS (wt  1.000):  0.0000  1.0000
  DIIS coefficients:  0.0000  1.0000
 SCF Error: norm([F,P])=      3.245668580470, max([F,P])=      2.491198868890
 orbitals (Q,E):
 ---------------
 S :1...3            ( 2.00    -6.3366)  ( 2.00    -0.1376)  ( 0.00     0.1999)
 P :1...2            ( 1.00     0.0926)  ( 0.00     0.3704)
 D :1...1            ( 0.00     0.7837)
 F :1...1            ( 0.00     1.6754)

 CYCLE    3
  SDIIS (wt  0.000):  0.0508  0.9492
 A-DIIS (wt  1.000):  0.0000  1.0000
  DIIS coefficients:  0.0000  1.0000
 SCF Error: norm([F,P])=      0.369776012478, max([F,P])=      0.232685291825
 orbitals (Q,E):
 ---------------
 S :1...3            ( 2.00    -8.1437)  ( 2.00    -0.7036)  ( 0.00     0.0921)
 P :1...2            ( 1.00    -0.1460)  ( 0.00     0.0840)
 D :1...1            ( 0.00     0.4799)
 F :1...1            ( 0.00     1.3236)

 CYCLE    4
  SDIIS (wt  0.115): -0.0109  0.1711  0.8399
 A-DIIS (wt  0.885):  0.0000  0.0000  1.0000
  DIIS coefficients: -0.0013  0.0197  0.9816
 SCF Error: norm([F,P])=      0.128104933842, max([F,P])=      0.088599187881
 orbitals (Q,E):
 ---------------
 S :1...3            ( 2.00    -7.6625)  ( 2.00    -0.4973)  ( 0.00     0.1734)
 P :1...2            ( 1.00     0.0020)  ( 0.00     0.1749)
 D :1...1            ( 0.00     0.6441)
 F :1...1            ( 0.00     1.5162)

 CYCLE    5
  SDIIS (wt  0.664): -0.0006 -0.0384  0.2275  0.8116
 A-DIIS (wt  0.336):  0.0000  0.0000  0.0000  1.0000
  DIIS coefficients: -0.0004 -0.0255  0.1512  0.8748
 SCF Error: norm([F,P])=      0.046591765232, max([F,P])=      0.034225012843
 orbitals (Q,E):
 ---------------
 S :1...3            ( 2.00    -7.8174)  ( 2.00    -0.5587)  ( 0.00     0.1542)
 P :1...2            ( 1.00    -0.0389)  ( 0.00     0.1515)
 D :1...1            ( 0.00     0.6001)
 F :1...1            ( 0.00     1.4647)

 CYCLE    6
  SDIIS (wt  0.964):  0.0001  0.0008 -0.0303  0.0556  0.9738
 A-DIIS (wt  0.036):  0.0000  0.0000  0.0000  0.0000  1.0000
  DIIS coefficients:  0.0001  0.0007 -0.0292  0.0536  0.9748
 SCF Error: norm([F,P])=      0.006561119519, max([F,P])=      0.004563988136
 orbitals (Q,E):
 ---------------
 S :1...3            ( 2.00    -7.7976)  ( 2.00    -0.5501)  ( 0.00     0.1574)
 P :1...2            ( 1.00    -0.0330)  ( 0.00     0.1551)
 D :1...1            ( 0.00     0.6068)
 F :1...1            ( 0.00     1.4726)

 CYCLE    7
  SDIIS (wt  1.000): -0.0000  0.0000  0.0013 -0.0086 -0.0597  1.0669
  DIIS coefficients: -0.0000  0.0000  0.0013 -0.0086 -0.0597  1.0669
 SCF Error: norm([F,P])=      0.000152796530, max([F,P])=      0.000100107116
 orbitals (Q,E):
 ---------------
 S :1...3            ( 2.00    -7.7979)  ( 2.00    -0.5503)  ( 0.00     0.1573)
 P :1...2            ( 1.00    -0.0331)  ( 0.00     0.1550)
 D :1...1            ( 0.00     0.6067)
 F :1...1            ( 0.00     1.4724)

 CYCLE    8
  SDIIS (wt  1.000):  0.0000 -0.0000 -0.0002  0.0015  0.0112 -0.2970  1.2846
  DIIS coefficients:  0.0000 -0.0000 -0.0002  0.0015  0.0112 -0.2970  1.2846
 SCF Error: norm([F,P])=      0.000019833440, max([F,P])=      0.000013297701
 orbitals (Q,E):
 ---------------
 S :1...3            ( 2.00    -7.7979)  ( 2.00    -0.5503)  ( 0.00     0.1573)
 P :1...2            ( 1.00    -0.0331)  ( 0.00     0.1550)
 D :1...1            ( 0.00     0.6067)
 F :1...1            ( 0.00     1.4724)

 CYCLE    9
  SDIIS (wt  1.000): -0.0000  0.0000  0.0001 -0.0004 -0.0024  0.0749 -0.3816  1.3096
  DIIS coefficients: -0.0000  0.0000  0.0001 -0.0004 -0.0024  0.0749 -0.3816  1.3096
 SCF Error: norm([F,P])=      0.000004960071, max([F,P])=      0.000003405050
 orbitals (Q,E):
 ---------------
 S :1...3            ( 2.00    -7.7979)  ( 2.00    -0.5503)  ( 0.00     0.1573)
 P :1...2            ( 1.00    -0.0331)  ( 0.00     0.1550)
 D :1...1            ( 0.00     0.6067)
 F :1...1            ( 0.00     1.4724)

 CYCLE   10
  SDIIS (wt  1.000): -0.0000 -0.0000  0.0000  0.0000 -0.0017  0.0092 -0.0790  1.0714
  DIIS coefficients: -0.0000 -0.0000  0.0000  0.0000 -0.0017  0.0092 -0.0790  1.0714
 SCF Error: norm([F,P])=      0.000000230529, max([F,P])=      0.000000153964
 orbitals (Q,E):
 ---------------
 S :1...3            ( 2.00    -7.7979)  ( 2.00    -0.5503)  ( 0.00     0.1573)
 P :1...2            ( 1.00    -0.0331)  ( 0.00     0.1550)
 D :1...1            ( 0.00     0.6067)
 F :1...1            ( 0.00     1.4724)

 CYCLE   11
  SDIIS (wt  1.000):  0.0000  0.0000 -0.0001  0.0014 -0.0227  1.0213
  DIIS coefficients:  0.0000  0.0000 -0.0001  0.0014 -0.0227  1.0213
 SCF Error: norm([F,P])=      0.000000000913, max([F,P])=      0.000000000719
 orbitals (Q,E):
 ---------------
 S :1...3            ( 2.00    -7.7979)  ( 2.00    -0.5503)  ( 0.00     0.1573)
 P :1...2            ( 1.00    -0.0331)  ( 0.00     0.1550)
 D :1...1            ( 0.00     0.6067)
 F :1...1            ( 0.00     1.4724)

 SCF CONVERGED

 CYCLE   12
1
 ***************************************************************************************************



                                                *******************
                                                *  R E S U L T S  *
                                                *******************
  
  
 Hartree-Fock exchange energy:   -3.55497880108979     
 *** Setting up for NEW gradients in Focky
 *** Using FIT density in Focky

 Orbital Energies, per Irrep and Spin:
 ======================================
                        Occup              E (au)              E (eV)       Diff (eV) with prev. cycle
                        -----      --------------------        ------       --------------------------
 S
               1        2.000     -0.77979202225974E+01      -212.192               3.89E-09
               2        2.000     -0.55027587008654E+00       -14.974               2.82E-09
               3        0.000      0.15729729046804E+00         4.280
               4        0.000      0.10207589821204E+01        27.776
               5        0.000      0.44255905057571E+01       120.426
               6        0.000      0.18721811688744E+02       509.446
               7        0.000      0.11642426835593E+03      3168.066
 P
               1        1.000     -0.33115030784183E-01        -0.901               1.63E-09
               2        0.000      0.15502734426988E+00         4.219
               3        0.000      0.91857999291507E+00        24.996
               4        0.000      0.69400976831900E+01       188.850
 D
               1        0.000      0.60669251021625E+00        16.509
               2        0.000      0.29444174524384E+01        80.122
 F
               1        0.000      0.14724325753628E+01        40.067
               2        0.000      0.77155701837939E+01       209.951


 Partially Occupied:
               1 P                -0.33115030784183E-01
  
 HOMO :        2 S                -0.55027587008654E+00
 LUMO :        2 P                 0.15502734426988E+00
  


 Orbital Energies, all Irreps
 ========================================

 Irrep        no.  (spin)   Occup              E (au)                E (eV)
 ---------------------------------------------------------------------------
 S             1             2.00       -0.77979202225974E+01      -212.1922
 S             2             2.00       -0.55027587008654E+00       -14.9738
 P             1             1.00       -0.33115030784183E-01        -0.9011
 P             2             0.00        0.15502734426988E+00         4.2185
 S             3             0.00        0.15729729046804E+00         4.2803
 D             1             0.00        0.60669251021625E+00        16.5089
 P             3             0.00        0.91857999291507E+00        24.9958
 S             4             0.00        0.10207589821204E+01        27.7763
 F             1             0.00        0.14724325753628E+01        40.0669
 D             2             0.00        0.29444174524384E+01        80.1217
 S             5             0.00        0.44255905057571E+01       120.4264
 P             4             0.00        0.69400976831900E+01       188.8497
 F             2             0.00        0.77155701837939E+01       209.9513
 S             6             0.00        0.18721811688744E+02       509.4464
 S             7             0.00        0.11642426835593E+03      3168.0655


 All Electron Calculation, thus no Orbital Energies of the Core Orbitals are calculated



 =======================================
 M U L L I K E N   P O P U L A T I O N S
 =======================================
  
 The survey below gives for each atom:
 a) the total charge (Z minus electrons)
 b) the net spin polarization (nr of electrons spin-A minus spin-B)
 c) for each spin the atomic electron valence density (integrated) per L-value.

 Atom              Charge    Spin density          S         P         D         F
 ----              ------    ------------       ------    ------    ------    ------
 1 B              -0.0000                       4.0000    1.0000    0.0000    0.0000

 Populations of individual BAS functions
 ----------------------------------------
 1 B            0.0430  1.3634 -0.0873  0.6000  0.3728  1.3995  0.3086  0.0011  0.0011  0.0011
                0.0605  0.0605  0.0605  0.0712  0.0712  0.0712  0.2006  0.2006  0.2006  0.0000
                0.0000  0.0000  0.0000  0.0000  0.0000  0.0000  0.0000  0.0000  0.0000  0.0000
                0.0000  0.0000  0.0000  0.0000  0.0000  0.0000  0.0000  0.0000  0.0000  0.0000
                0.0000  0.0000  0.0000  0.0000  0.0000  0.0000  0.0000  0.0000  0.0000  0.0000
                0.0000

 Gross Charges per Atom (Z minus electrons)
 ==========================================
            -0.0000
 Net Total: -0.00000000



 =======================================================================
 Electrostatic potential at the Nuclei due to electrons and other nuclei
 =======================================================================
  
         Atom                  Potential
         ----                  ---------
     1)   B                  11.28561237
 
 
 ========================
 No memory problems found
 ========================
 
 Maximum number of active allocate calls:         454
 
 *******************************************************************************

                             A D F   E X I T
 NORMAL TERMINATION



 =================
 Timing Statistics
 =================
  
 Total Used :                     CPU=        0.83      System=        0.08     Elapsed=        2.26

 Calls  Section                     ( Mean, Percentage )
 ---------------------------------------------------------------------------------------------------
     3  ><      ................      0.00    0.33             0.00    2.04             0.00    0.44
     1  INIT    ................      0.04    4.62             0.01   12.27             1.25   55.32
     1  GEOMET  ................      0.02    2.69             0.03   37.22             0.09    4.17
     1  INPUTA  ................      0.00    0.55             0.00    0.88             0.01    0.31
     1  MAINSY  ................      0.01    1.33             0.01    5.97             0.03    1.23
     1  SYMFIT  ................      0.00    0.19             0.00    0.04             0.00    0.11
     1  CORORT  ................      0.00    0.14             0.00    0.00             0.00    0.05
     1  SYMORB  ................      0.00    0.13             0.00    0.00             0.00    0.05
     1  FITINT  ................      0.02    2.03             0.00    0.17             0.02    0.92
     1  CLSMAT  ................      0.00    0.18             0.00    0.00             0.00    0.09
     1  ORTHON  ................      0.01    0.82             0.00    0.00             0.01    0.57
     1  GENPT   ................      0.02    1.83             0.00    3.60             0.02    1.02
     1  PTBAS   ................      0.00    0.48             0.00    0.71             0.01    0.42
    12  FOCKY   ................      0.05   76.87             0.00   28.26             0.06   31.36
    12  FOCKTR  ................      0.00    0.89             0.00    1.00             0.00    0.38
    12  SDIIS   ................      0.00    2.64             0.00    2.68             0.00    1.50
     1  COREPS  ................      0.02    2.13             0.00    0.41             0.02    0.92
     1  POPAN   ................      0.01    0.80             0.00    1.52             0.01    0.43
     1  DEBYE   ................      0.00    0.11             0.00    0.97             0.00    0.15
     1  EXIT PROCEDURE .........      0.01    1.24             0.00    2.27             0.01    0.56


 Currently Open Files (EXIT00)
 ====================

 Unit    Access Format  Status   Type       Ident (file)
 -------------------------------------------------------
   3      SEQ    FORM   TRANSP  NORMAL      LOGFILE
                                          ( logfile )


 Buffered I/O statistics
 =======================
 Memory available:                     67108864
 Number of records fitting in memory:     16131
 Input :   0.1% of                        42535  *4k bytes
 Output:   8.0% of                         2560  *4k bytes
 Records from serial files evicted:           0
                    others evicted:           0
 Hash table lookups:      87327 with          0 conflicts (  0.00%)

 ***************************************************************************************************
 (LOGFILE)
 <Mar23-2019> <10:00:02>  ADF 2018  RunTime: Mar23-2019 10:00:02  Nodes: 1  Procs: 1
 <Mar23-2019> <10:00:02>  Boron (QZ, all electron, 7S 4P 2D 2F)
 <Mar23-2019> <10:00:02>  RunType   : CREATE
 <Mar23-2019> <10:00:02>  Net Charge: 0 (Nuclei minus Electrons)
 <Mar23-2019> <10:00:02>  Symmetry  : ATOM
  Coordinates
    Atom         X           Y           Z   (Angstrom)
    1.B         0.000000    0.000000    0.000000
 <Mar23-2019> <10:00:02>  >>>> CORORT
 <Mar23-2019> <10:00:02>  >>>> FITINT
 <Mar23-2019> <10:00:02>  >>>> CLSMAT
 <Mar23-2019> <10:00:02>  >>>> ORTHON
 <Mar23-2019> <10:00:02>  >>>> GENPT
 <Mar23-2019> <10:00:02>  Block Length=  72
 <Mar23-2019> <10:00:02>  >>>> PTBAS
 <Mar23-2019> <10:00:02>  >>>> CYCLE
 <Mar23-2019> <10:00:02>  CalcFitR12Fit
 <Mar23-2019> <10:00:02>  CalcFitCoeff
 <Mar23-2019> <10:00:02>              |Error|         MaxErr       Wt(A-DIIS)
 <Mar23-2019> <10:00:02>      1      0.00000000      0.00000000
 <Mar23-2019> <10:00:02>      2      3.24566858      2.49119887    100.0
 <Mar23-2019> <10:00:02>      3      0.36977601      0.23268529    100.0
 <Mar23-2019> <10:00:02>      4      0.12810493      0.08859919     88.5
 <Mar23-2019> <10:00:02>      5      0.04659177      0.03422501     33.6
 <Mar23-2019> <10:00:02>      6      0.00656112      0.00456399      3.6
 <Mar23-2019> <10:00:02>      7      0.00015280      0.00010011      0.0
 <Mar23-2019> <10:00:02>      8      0.00001983      0.00001330      0.0
 <Mar23-2019> <10:00:02>      9      0.00000496      0.00000341      0.0
 <Mar23-2019> <10:00:03>     10      0.00000023      0.00000015      0.0
 <Mar23-2019> <10:00:03>     11      0.00000000      0.00000000      0.0
 <Mar23-2019> <10:00:03>  SCF converged
 <Mar23-2019> <10:00:03>     12      0.00000000      0.00000000      0.0
 <Mar23-2019> <10:00:03>  >>>> POPAN
 <Mar23-2019> <10:00:03>  >>>> DEBYE
 <Mar23-2019> <10:00:03>  NORMAL TERMINATION
 <Mar23-2019> <10:00:03>  END


 Parallel Execution: Process Information
 ==============================================================================
 Rank   Node Name                              NodeID   MyNodeRank  NodeMaster
    0   vladimir-kubuntu                          0          0          0
    1   vladimir-kubuntu                          0          1         -1
    2   vladimir-kubuntu                          0          2         -1
    3   vladimir-kubuntu                          0          3         -1
 ==============================================================================


May use up to 7569MB of RAM as shared memory on node 0
 
Title B

Symmetry NOSYM

ATOMS
 B         0.000000000000      0.000000000000      0.000000000000
END

CHARGE 0 1

UNRESTRICTED

IrrepOccupations
  A 3 // 2
End

RIHartreeFock
  UseMe True
  Quality Excellent
  DependencyThreshold 1.0E-8
End

NUMERICALQUALITY excellent

XC
  HartreeFock
END

EPRINT
  SFO NOEIG NOOVL NOORBPOP
  SCF NOPOP
END

NOPRINT BAS FUNCTIONS

TOTALENERGY
NOTOTEN

Fragments
B t21.B
End

 *******************************************************************************
 *                                                                             *
 *  -------------------------------------                                      *
 *   Amsterdam Density Functional  (ADF)         2018                          *
 *  -------------------------------------                                      *
 *                                               r70630 2018-11-24             *
 *                                                                             *
 *                                                                             *
 *                              =================                              *
 *                              |               |                              *
 *                              |     A D F     |                              *
 *                              |               |                              *
 *                              =================                              *
 *                                                                             *
 *                                                                             *
 *   Online information and documentation:  https://www.scm.com/support/       *
 *   E-mail:  support@scm.com   info@scm.com                                   *
 *                                                                             *
 *   Scientific publications using ADF results must be properly referenced     *
 *   See the User Manuals (or the web site) for recommended citations          *
 *   The terms and conditions of the End User License Agreement apply to       *
 *   the use of ADF, https://www.scm.com/license-terms/                        *
 *                                                                             *
 **********************  x86_64_linux_intel / intelmpi  ************************
 
 Licensed to: Mr. Vladimir Konjkov / Florida Institute of Technology / Melbourne / Florida / USA
 SCM User ID: u21173
  
 ADF 2018  RunTime: Mar23-2019 10:00:03  Nodes: 1  Procs: 4

 Temporary files are created in /tmp/kid_0.845166507


Communication costs MPI_COMM_WORLD:      0.245 usec per message,   0.0033 usec per 8-byte item
Communication costs for intra-node:      0.271 usec per message,   0.0032 usec per 8-byte item

 B



 ===========================
 A T T A C H E D   F I L E S
 ===========================
  



 ===============================
 M O D E L   P A R A M E T E R S
 ===============================
  
 DENSITY FUNCTIONAL POTENTIAL (scf)
    Hybrid:                            HARTREEFOCK                             == Not Default ==

 SPIN  (restricted / unrestr.)
    Molecule:                          UNrestricted                            == Not Default ==
    Fragments:                         Restricted                               

 OTHER ASPECTS
    Relativistic Corrections:          ---                                      

    Nuclear Charge Density Model:      Point Charge Nuclei                      
    Core Treatment:                    Frozen Orbital(s)                        

    Hyperfine or Zeeman Interaction:   ---                                      


 Fragment File(s)
 ----------------
 B:
         file : t21.B
         jobid: ADF 2018  RunTime: Mar23-2019 10:00:02  Nodes: 1  Procs: 1
         title: Boron (QZ, all electron, 7S 4P 2D 2F)



                                        ************************************
                                        *  R U N   T Y P E : SINGLE POINT  *
                                        ************************************
  



 ===============
 G E O M E T R Y  ***  Single Atom  ***
 ===============
  

 ATOMS
 =====                            X Y Z                    CHARGE
                                (Angstrom)             Nucl     +Core       At.Mass
                       --------------------------    ----------------       -------
    1  B               0.0000    0.0000    0.0000      5.00      5.00       11.0093


 FRAGMENTS
 =========                                     Atoms in this Fragment     Cart. coord.s (Angstrom)
                                               -------------------------------------------------------
    1  B                                                 1  B            0.0000    0.0000    0.0000



 =====================================
 S Y M M E T R Y ,   E L E C T R O N S
 =====================================
  
 Symmetry: NOSYM

 Irreducible Representations, including subspecies
 -------------------------------------------------
 A


 Configuration of Valence Electrons
 ==================================

          (Spin-A)                          (Spin-B)
          -------------------------------------------------
 A        3*1                               2*1
          -------------------------------------------------

 Total:   3                                 2

 Net Charge: 0 (Nuclei minus Electrons)
 Spin polar: 1 (Spin_A minus Spin_B electrons)

 Preset values for MO occupations will be applied through SCF cycle no. 1000000
 Thereafter, the program will assign electrons to MOs that are spatially
 similar to the occupied MOs in a "reference" cycle ("KeepOrbitals").
 The reference cycle is always the PREVIOUS cycle: it will evolve with
 the SCF procedure.



 =======
 S F O s  ***  (Symmetrized Fragment Orbitals)  ***
 =======
  
 SFOs are linear combinations of (valence) Fragment Orbitals (FOs), such that the SFOs transform as the
 irreducible representations of the (molecular) symmetry group. Each SFO is therefore characterized by
 an irrep of the molecule and by a few (or only one) generating FOs.
 The SFOs constitute a symmetry-adapted basis for the Fock matrix. The MO eigenvector coefficients in
 this basis provide a direct interpretation of the MOs in terms of Frontier Orbital Theory.

 The SFOs are combined with auxiliary Core Functions (CFs) to ensure orthogonalization on the (frozen)
 Core Orbitals (COs). The Core-orthogonalized SFOs (CSFOs) constitute the true Fock basis.

 The FOs, and hence also the (C)SFOs are combinations of the elementary basis functions (BAS). The basis
 functions that participate in the description of the SFOs depend on the irrep. The indices of the
 involved functions are printed below for each irrep.
 (The complete list of primitive basis functions is printed in another section)

 Total nr. of (C)SFOs (summation over all irreps) :    43

 NOTE: a (C)SFO that is defined as a combination of more than one FO is usually NOT normalized.



                                       === A ===
 Nr. of SFOs :   43
 Cartesian basis functions that participate in this irrep (total number =    51) :
      1     2     3     4     5     6     7     8    11    14
     17     9    12    15    18    10    13    16    19    20
     26    21    27    22    28    23    29    24    30    25
     31    32    42    33    43    34    44    35    45    36
     46    37    47    38    48    39    49    40    50    41
     51

    SFO  (index         Fragment          Generating    Expansion in Fragment Orbitals
  indx  incl.CFs)   Occup   Orb.Energy   FragmentType  Coeff.   Orbital     on Fragment
 --------------------------------------------------------------------------------------
     1       1      2.000      -7.798 au  B             1.00      1 S               1
                        (    -212.192 eV)
     2       2      2.000      -0.550 au  B             1.00      2 S               1
                        (     -14.974 eV)
     3       3       --         0.157 au  B             1.00      3 S               1
                        (       4.280 eV)
     4       4       --         1.021 au  B             1.00      4 S               1
                        (      27.776 eV)
     5       5       --         4.426 au  B             1.00      5 S               1
                        (     120.426 eV)
     6       6       --        18.722 au  B             1.00      6 S               1
                        (     509.446 eV)
     7       7       --       116.424 au  B             1.00      7 S               1
                        (    3168.066 eV)
     8       8      0.333      -0.033 au  B             1.00      1 P:x             1
                        (      -0.901 eV)
     9       9       --         0.155 au  B             1.00      2 P:x             1
                        (       4.219 eV)
    10      10       --         0.919 au  B             1.00      3 P:x             1
                        (      24.996 eV)
    11      11       --         6.940 au  B             1.00      4 P:x             1
                        (     188.850 eV)
    12      12      0.333      -0.033 au  B             1.00      1 P:y             1
                        (      -0.901 eV)
    13      13       --         0.155 au  B             1.00      2 P:y             1
                        (       4.219 eV)
    14      14       --         0.919 au  B             1.00      3 P:y             1
                        (      24.996 eV)
    15      15       --         6.940 au  B             1.00      4 P:y             1
                        (     188.850 eV)
    16      16      0.333      -0.033 au  B             1.00      1 P:z             1
                        (      -0.901 eV)
    17      17       --         0.155 au  B             1.00      2 P:z             1
                        (       4.219 eV)
    18      18       --         0.919 au  B             1.00      3 P:z             1
                        (      24.996 eV)
    19      19       --         6.940 au  B             1.00      4 P:z             1
                        (     188.850 eV)
    20      20       --         0.607 au  B             1.00      1 D:z2            1
                        (      16.509 eV)
    21      21       --         2.944 au  B             1.00      2 D:z2            1
                        (      80.122 eV)
    22      22       --         0.607 au  B             1.00      1 D:x2-y2         1
                        (      16.509 eV)
    23      23       --         2.944 au  B             1.00      2 D:x2-y2         1
                        (      80.122 eV)
    24      24       --         0.607 au  B             1.00      1 D:xy            1
                        (      16.509 eV)
    25      25       --         2.944 au  B             1.00      2 D:xy            1
                        (      80.122 eV)
    26      26       --         0.607 au  B             1.00      1 D:xz            1
                        (      16.509 eV)
    27      27       --         2.944 au  B             1.00      2 D:xz            1
                        (      80.122 eV)
    28      28       --         0.607 au  B             1.00      1 D:yz            1
                        (      16.509 eV)
    29      29       --         2.944 au  B             1.00      2 D:yz            1
                        (      80.122 eV)
    30      30       --         1.472 au  B             1.00      1 F:z3            1
                        (      40.067 eV)
    31      31       --         7.716 au  B             1.00      2 F:z3            1
                        (     209.951 eV)
    32      32       --         1.472 au  B             1.00      1 F:z             1
                        (      40.067 eV)
    33      33       --         7.716 au  B             1.00      2 F:z             1
                        (     209.951 eV)
    34      34       --         1.472 au  B             1.00      1 F:xyz           1
                        (      40.067 eV)
    35      35       --         7.716 au  B             1.00      2 F:xyz           1
                        (     209.951 eV)
    36      36       --         1.472 au  B             1.00      1 F:z2x           1
                        (      40.067 eV)
    37      37       --         7.716 au  B             1.00      2 F:z2x           1
                        (     209.951 eV)
    38      38       --         1.472 au  B             1.00      1 F:z2y           1
                        (      40.067 eV)
    39      39       --         7.716 au  B             1.00      2 F:z2y           1
                        (     209.951 eV)
    40      40       --         1.472 au  B             1.00      1 F:x             1
                        (      40.067 eV)
    41      41       --         7.716 au  B             1.00      2 F:x             1
                        (     209.951 eV)
    42      42       --         1.472 au  B             1.00      1 F:y             1
                        (      40.067 eV)
    43      43       --         7.716 au  B             1.00      2 F:y             1
                        (     209.951 eV)

 Total number of charge fitting functions (nprimf)       149
 Total number of Cartesian basis functions (naos)         51
 Total number of Cartesian core functions  (ncos)          0

1
 ***************************************************************************************************



                                              ***********************
                                              *  T E C H N I C A L  *
                                              ***********************
  



 =============================================================
 P A R A L L E L I Z A T I O N  and  V E C T O R I Z A T I O N
 =============================================================
  
 Nr of parallel processes:                                4
 Maximum vector length in NumInt loops:                 128

 IO buffersize (Mb):                                     64.000000



 =====================
 S C F   U P D A T E S
 =====================
  
 Max. nr. of cycles:                               300
 Convergence criterion:                              0.0000010000
   secondary criterion:                              0.0010000000

 Mix parameter (when DIIS does not apply):           0.2000000000
 Mixed ADIIS+DIIS will be used
    Max number of expansion vectors:                10
    Pure ADIIS when Max([F,P]) is above              0.1000000000
    Pure DIIS when Max([F,P]) is below               0.0010000000
 Automatic ElectronSmearing (in case of problematic SCF convergence) disabled



 =================
 P R E C I S I O N  ***  (General: NumInt, NeglectFunctionTails, ...)  ***
 =================
  

 NumInt:           Target precision:                10.0000000000
 -------           Initial precision:               10.0000000000
                   Min. precision (optimization):   10.0000000000

 Neglect Functions:          Basis functions:        0.1000000000E-11
 ------------------          Fit functions:          0.1000000000E-11



 ===========================
 L I N E A R   S C A L I N G
 ===========================
  

 Cut-off radii density fit:                        0.1000000000E-13
 Overlap cut-off criterion AO matrix elements:     0.1000000000E-11
 Cut-offs for Coulomb potential and fitted density:0.1000000000E-13
 Cut-off criterion for Coulomb multipole terms:    0.1000000000E-13
 Progressive Convergence parameter:                 0.000000000    
1
 ***************************************************************************************************



                                            ***************************
                                            *  C O M P U T A T I O N  *
                                            ***************************
  

 Number of elements of the density matrix on this node (used, total):      1326      1326



 ===========================================
 Numerical Integration : Fuzzy Cells (Becke)
 ===========================================
  
 Becke grid quality: EXCELLENT      
  
 Lebedev angular grid order:             min:  17 max:  47
 Nr. of radial points:                   min: 114 max: 114

 Total nr. of points:      11172
 Nr. of blocks:              114
 Block length:                98
 Nr. of dummy points:          0


 Test of Precision of the Numerical Integration Grid
 ===================================================

 Integral of the Total Core Density:                   0.00000000000000



 ========================
 Density Fitting (zlmFit)
 ========================
  
 ZlmFit Fit Quality: EXCELLENT      
  
 Max L-expansion:                        min:  15 max:  15
 Nr. of radial interpolation points:     min: 238 max: 238



 ======================
 RI Hartree-Fock Scheme
 ======================
  
 Fit Set Quality     : EXCELLENT
 Integration Quality : EXCELLENT
 Threshold Quality   : EXCELLENT
 Response Quality    : DEFAULT
 Is Range Separated  :  F
 
 RIHartreeFock Dependency: number of modified vectors:           0



 =====
 S C F  ***  ScaSCF  ***
 =====
  
 Initial density matrix is calculated as sum of fragments

 CYCLE    1
 SCF Error: norm([F,P])=      0.000003550952, max([F,P])=      0.000001037112
 ***** SPIN 1 *****
 orbitals (Q,E):
 ---------------
 A :1...13           ( 1.00    -7.7979)  ( 1.00    -0.5503)  ( 1.00    -0.0331)  ( 0.00    -0.0331)
                     ( 0.00    -0.0331)  ( 0.00     0.1550)  ( 0.00     0.1550)  ( 0.00     0.1550)
                     ( 0.00     0.1573)  ( 0.00     0.6067)  ( 0.00     0.6067)  ( 0.00     0.6067)
                     ( 0.00     0.6067)
 ***** SPIN 2 *****
 orbitals (Q,E):
 ---------------
 A :1...12           ( 1.00    -7.7979)  ( 1.00    -0.5503)  ( 0.00    -0.0331)  ( 0.00    -0.0331)
                     ( 0.00    -0.0331)  ( 0.00     0.1550)  ( 0.00     0.1550)  ( 0.00     0.1550)
                     ( 0.00     0.1573)  ( 0.00     0.6067)  ( 0.00     0.6067)  ( 0.00     0.6067)
  
 Spin polar: 1 (Spin_A minus Spin_B electrons)

 CYCLE    2
  SDIIS (wt  0.000):  1.0000  0.0000
 A-DIIS (wt  1.000):  0.0000  1.0000
  DIIS coefficients:  0.0000  1.0000
 SCF Error: norm([F,P])=      0.120681228767, max([F,P])=      0.066949511133
 ***** SPIN 1 *****
 orbitals (Q,E):
 ---------------
 A :1...4            ( 1.00    -7.8019)  ( 1.00    -0.5853)  ( 1.00    -0.2897)  ( 0.00    -0.0002)
 ***** SPIN 2 *****
 orbitals (Q,E):
 ---------------
 A :1...3            ( 1.00    -7.7939)  ( 1.00    -0.5167)  ( 0.00     0.0144)
  
 Spin polar: 1 (Spin_A minus Spin_B electrons)

 CYCLE    3
  SDIIS (wt  0.000): -0.5484  1.5484
 A-DIIS (wt  1.000):  0.0000  1.0000
  DIIS coefficients:  0.0000  1.0000
 SCF Error: norm([F,P])=      0.068006817254, max([F,P])=      0.031807739827
 ***** SPIN 1 *****
 orbitals (Q,E):
 ---------------
 A :1...4            ( 1.00    -7.7286)  ( 1.00    -0.5571)  ( 1.00    -0.3010)  ( 0.00     0.0227)
 ***** SPIN 2 *****
 orbitals (Q,E):
 ---------------
 A :1...3            ( 1.00    -7.7184)  ( 1.00    -0.4753)  ( 0.00     0.0343)
  
 Spin polar: 1 (Spin_A minus Spin_B electrons)

 CYCLE    4
  SDIIS (wt  0.846):  0.0471 -1.1728  2.1257
 A-DIIS (wt  0.154):  0.0000  0.0000  1.0000
  DIIS coefficients:  0.0398 -0.9918  1.9520
 SCF Error: norm([F,P])=      0.036817541038, max([F,P])=      0.016280262067
 ***** SPIN 1 *****
 orbitals (Q,E):
 ---------------
 A :1...4            ( 1.00    -7.7017)  ( 1.00    -0.5438)  ( 1.00    -0.3176)  ( 0.00     0.0333)
 ***** SPIN 2 *****
 orbitals (Q,E):
 ---------------
 A :1...3            ( 1.00    -7.6890)  ( 1.00    -0.4498)  ( 0.00     0.0415)
  
 Spin polar: 1 (Spin_A minus Spin_B electrons)

 CYCLE    5
  SDIIS (wt  0.982): -0.0282  0.6808 -1.3658  1.7132
 A-DIIS (wt  0.018):  0.0000  0.0000  0.0000  1.0000
  DIIS coefficients: -0.0277  0.6683 -1.3407  1.7000
 SCF Error: norm([F,P])=      0.007042866869, max([F,P])=      0.002825719482
 ***** SPIN 1 *****
 orbitals (Q,E):
 ---------------
 A :1...4            ( 1.00    -7.7034)  ( 1.00    -0.5456)  ( 1.00    -0.3177)  ( 0.00     0.0326)
 ***** SPIN 2 *****
 orbitals (Q,E):
 ---------------
 A :1...3            ( 1.00    -7.6890)  ( 1.00    -0.4481)  ( 0.00     0.0402)
  
 Spin polar: 1 (Spin_A minus Spin_B electrons)

 CYCLE    6
  SDIIS (wt  1.000):  0.0163 -0.1153  0.1744 -0.3634  1.2879
  DIIS coefficients:  0.0163 -0.1153  0.1744 -0.3634  1.2879
 SCF Error: norm([F,P])=      0.001647702807, max([F,P])=      0.000724798715
 ***** SPIN 1 *****
 orbitals (Q,E):
 ---------------
 A :1...4            ( 1.00    -7.7009)  ( 1.00    -0.5451)  ( 1.00    -0.3187)  ( 0.00     0.0334)
 ***** SPIN 2 *****
 orbitals (Q,E):
 ---------------
 A :1...3            ( 1.00    -7.6859)  ( 1.00    -0.4462)  ( 0.00     0.0409)
  
 Spin polar: 1 (Spin_A minus Spin_B electrons)

 CYCLE    7
  SDIIS (wt  1.000): -0.0044  0.0236 -0.0288  0.0658 -0.3605  1.3044
  DIIS coefficients: -0.0044  0.0236 -0.0288  0.0658 -0.3605  1.3044
 SCF Error: norm([F,P])=      0.000215111196, max([F,P])=      0.000070224688
 ***** SPIN 1 *****
 orbitals (Q,E):
 ---------------
 A :1...4            ( 1.00    -7.7010)  ( 1.00    -0.5451)  ( 1.00    -0.3187)  ( 0.00     0.0334)
 ***** SPIN 2 *****
 orbitals (Q,E):
 ---------------
 A :1...3            ( 1.00    -7.6860)  ( 1.00    -0.4461)  ( 0.00     0.0409)
  
 Spin polar: 1 (Spin_A minus Spin_B electrons)

 CYCLE    8
  SDIIS (wt  1.000):  0.0006 -0.0040  0.0049 -0.0114  0.0662 -0.3065  1.2502
  DIIS coefficients:  0.0006 -0.0040  0.0049 -0.0114  0.0662 -0.3065  1.2502
 SCF Error: norm([F,P])=      0.000026046852, max([F,P])=      0.000009282587
 ***** SPIN 1 *****
 orbitals (Q,E):
 ---------------
 A :1...4            ( 1.00    -7.7010)  ( 1.00    -0.5452)  ( 1.00    -0.3187)  ( 0.00     0.0334)
 ***** SPIN 2 *****
 orbitals (Q,E):
 ---------------
 A :1...3            ( 1.00    -7.6860)  ( 1.00    -0.4461)  ( 0.00     0.0409)
  
 Spin polar: 1 (Spin_A minus Spin_B electrons)

 CYCLE    9
  SDIIS (wt  1.000): -0.0001  0.0007 -0.0008  0.0017 -0.0118  0.0606 -0.3210  1.2706
  DIIS coefficients: -0.0001  0.0007 -0.0008  0.0017 -0.0118  0.0606 -0.3210  1.2706
 SCF Error: norm([F,P])=      0.000003330414, max([F,P])=      0.000001355167
 ***** SPIN 1 *****
 orbitals (Q,E):
 ---------------
 A :1...4            ( 1.00    -7.7010)  ( 1.00    -0.5452)  ( 1.00    -0.3187)  ( 0.00     0.0334)
 ***** SPIN 2 *****
 orbitals (Q,E):
 ---------------
 A :1...3            ( 1.00    -7.6860)  ( 1.00    -0.4461)  ( 0.00     0.0409)
  
 Spin polar: 1 (Spin_A minus Spin_B electrons)

 CYCLE   10
  SDIIS (wt  1.000):  0.0000 -0.0001  0.0001 -0.0001  0.0017 -0.0099  0.0509 -0.2829  1.2403
  DIIS coefficients:  0.0000 -0.0001  0.0001 -0.0001  0.0017 -0.0099  0.0509 -0.2829  1.2403
 SCF Error: norm([F,P])=      0.000000522865, max([F,P])=      0.000000236101
 ***** SPIN 1 *****
 orbitals (Q,E):
 ---------------
 A :1...4            ( 1.00    -7.7010)  ( 1.00    -0.5452)  ( 1.00    -0.3187)  ( 0.00     0.0334)
 ***** SPIN 2 *****
 orbitals (Q,E):
 ---------------
 A :1...3            ( 1.00    -7.6860)  ( 1.00    -0.4461)  ( 0.00     0.0409)
  
 Spin polar: 1 (Spin_A minus Spin_B electrons)

 SCF CONVERGED

 CYCLE   11
1
 ***************************************************************************************************



                                                *******************
                                                *  R E S U L T S  *
                                                *******************
  
  
 Hartree-Fock exchange energy:   -3.76974533690134     
 *** Setting up for NEW gradients in Focky
 *** Using FIT density in Focky


                                   ***** SPIN 1 *****

 Orbital Energies, per Irrep and Spin:
 ======================================
                        Occup              E (au)              E (eV)       Diff (eV) with prev. cycle
                        -----      --------------------        ------       --------------------------
 A
               1        1.000     -0.77010199164889E+01      -209.555              -3.68E-06
               2        1.000     -0.54515758727990E+00       -14.834              -1.59E-06
               3        1.000     -0.31870167074696E+00        -8.672               8.57E-07
               4        0.000      0.33400023103274E-01         0.909
               5        0.000      0.33400023104702E-01         0.909
               6        0.000      0.13545180828591E+00         3.686
               7        0.000      0.17149998678516E+00         4.667
               8        0.000      0.18290897069266E+00         4.977
               9        0.000      0.18290897069861E+00         4.977
              10        0.000      0.61388548471236E+00        16.705
              11        0.000      0.61879929551167E+00        16.838
              12        0.000      0.61879929552128E+00        16.838
              13        0.000      0.63842862747807E+00        17.373
  
 HOMO :        3 A                -0.31870167074696E+00
 LUMO :        4 A                 0.33400023103274E-01
  


                                   ***** SPIN 2 *****

 Orbital Energies, per Irrep and Spin:
 ======================================
                        Occup              E (au)              E (eV)       Diff (eV) with prev. cycle
                        -----      --------------------        ------       --------------------------
 A
               1        1.000     -0.76859771877221E+01      -209.146              -3.66E-06
               2        1.000     -0.44607141610341E+00       -12.138              -9.53E-07
               3        0.000      0.40895895931988E-01         1.113
               4        0.000      0.40895895933571E-01         1.113
               5        0.000      0.69962200659993E-01         1.904
               6        0.000      0.18514963302811E+00         5.038
               7        0.000      0.19268958457298E+00         5.243
               8        0.000      0.19268958457472E+00         5.243
               9        0.000      0.23284304177121E+00         6.336
              10        0.000      0.64138607516585E+00        17.453
              11        0.000      0.64138607516774E+00        17.453
              12        0.000      0.67456167585424E+00        18.356
  
 HOMO :        2 A                -0.44607141610341E+00
 LUMO :        3 A                 0.40895895931988E-01
  


 Orbital Energies, both Spins
 ========================================

 Irrep        no.  (spin)   Occup              E (au)                E (eV)
 ---------------------------------------------------------------------------
 A             1     A       1.00       -0.77010199164889E+01      -209.5554
 A             1      B      1.00       -0.76859771877221E+01      -209.1461
 A             2     A       1.00       -0.54515758727990E+00       -14.8345
 A             2      B      1.00       -0.44607141610341E+00       -12.1382
 A             3     A       1.00       -0.31870167074696E+00        -8.6723
 A             4     A       0.00        0.33400023103274E-01         0.9089
 A             5     A       0.00        0.33400023104702E-01         0.9089
 A             3      B      0.00        0.40895895931988E-01         1.1128
 A             4      B      0.00        0.40895895933571E-01         1.1128
 A             5      B      0.00        0.69962200659993E-01         1.9038
 A             6     A       0.00        0.13545180828591E+00         3.6858
 A             7     A       0.00        0.17149998678516E+00         4.6668
 A             8     A       0.00        0.18290897069266E+00         4.9772
 A             9     A       0.00        0.18290897069861E+00         4.9772
 A             6      B      0.00        0.18514963302811E+00         5.0382
 A             7      B      0.00        0.19268958457298E+00         5.2434
 A             8      B      0.00        0.19268958457472E+00         5.2434
 A             9      B      0.00        0.23284304177121E+00         6.3360
 A            10     A       0.00        0.61388548471236E+00        16.7047
 A            11     A       0.00        0.61879929551167E+00        16.8384
 A            12     A       0.00        0.61879929552128E+00        16.8384
 A            13     A       0.00        0.63842862747807E+00        17.3725
 A            14     A       0.00        0.63842862748598E+00        17.3725
 A            10      B      0.00        0.64138607516585E+00        17.4530
 A            11      B      0.00        0.64138607516774E+00        17.4530
 A            12      B      0.00        0.67456167585424E+00        18.3558
 A            13      B      0.00        0.67456167585498E+00        18.3558
 A            14      B      0.00        0.68705710554195E+00        18.6958
 A            15     A       0.00        0.92228202718647E+00        25.0966
 A            16     A       0.00        0.97062057484481E+00        26.4119
 A            17     A       0.00        0.97062057485560E+00        26.4119
 A            15      B      0.00        0.98169132264102E+00        26.7132
 A            16      B      0.00        0.98169132265351E+00        26.7132
 A            17      B      0.00        0.10254615175799E+01        27.9042
 A            18     A       0.00        0.10575813932323E+01        28.7783
 A            18      B      0.00        0.10838770636379E+01        29.4938
 A            19     A       0.00        0.14993807136961E+01        40.8002
 A            20     A       0.00        0.14993807136995E+01        40.8002
 A            19      B      0.00        0.15003729654111E+01        40.8272
 A            20      B      0.00        0.15003729654137E+01        40.8272
 A            21     A       0.00        0.15056755081828E+01        40.9715
 A            22     A       0.00        0.15056755081917E+01        40.9715
 A            23     A       0.00        0.15092725575256E+01        41.0694
 A            24     A       0.00        0.15092725575395E+01        41.0694
 A            25     A       0.00        0.15104377684342E+01        41.1011
 A            21      B      0.00        0.15278655660084E+01        41.5753
 A            22      B      0.00        0.15278655660091E+01        41.5753
 A            23      B      0.00        0.15449628512078E+01        42.0406
 A            24      B      0.00        0.15449628512081E+01        42.0406
 A            25      B      0.00        0.15507911351764E+01        42.1992
 A            26     A       0.00        0.29962329720682E+01        81.5316
 A            27     A       0.00        0.29983740243624E+01        81.5899
 A            28     A       0.00        0.29983740243862E+01        81.5899
 A            29     A       0.00        0.30050280541483E+01        81.7710
 A            30     A       0.00        0.30050280541549E+01        81.7710
 A            26      B      0.00        0.30114105887230E+01        81.9447
 A            27      B      0.00        0.30114105887240E+01        81.9447
 A            28      B      0.00        0.30497665888530E+01        82.9884
 A            29      B      0.00        0.30497665888571E+01        82.9884
 A            30      B      0.00        0.30633466226552E+01        83.3579
 A            31     A       0.00        0.44958018570030E+01       122.3370
 A            31      B      0.00        0.45147450742920E+01       122.8525
 A            32     A       0.00        0.70199026884444E+01       191.0213
 A            33     A       0.00        0.70237047299693E+01       191.1247
 A            34     A       0.00        0.70237047300104E+01       191.1247
 A            32      B      0.00        0.70293679490103E+01       191.2788
 A            33      B      0.00        0.70293679490505E+01       191.2788
 A            34      B      0.00        0.70602138251786E+01       192.1182
 A            35     A       0.00        0.77783992849413E+01       211.6610
 A            36     A       0.00        0.77783992849447E+01       211.6610
 A            35      B      0.00        0.77813595622557E+01       211.7416
 A            36      B      0.00        0.77813595622565E+01       211.7416
 A            37     A       0.00        0.77913766005904E+01       212.0141
 A            38     A       0.00        0.77913766005938E+01       212.0141
 A            39     A       0.00        0.77991496962837E+01       212.2257
 A            40     A       0.00        0.77991496962908E+01       212.2257
 A            41     A       0.00        0.78017379682635E+01       212.2961
 A            37      B      0.00        0.78110730026713E+01       212.5501
 A            38      B      0.00        0.78110730026720E+01       212.5501
 A            39      B      0.00        0.78290982684522E+01       213.0406
 A            40      B      0.00        0.78290982684524E+01       213.0406
 A            41      B      0.00        0.78351425477134E+01       213.2051
 A            42     A       0.00        0.18814122830957E+02       511.9583
 A            42      B      0.00        0.18821340668144E+02       512.1547
 A            43     A       0.00        0.11652068580339E+03      3170.6892
 A            43      B      0.00        0.11652275864428E+03      3170.7456
  
 Spin polar: 1 (Spin_A minus Spin_B electrons)


 All Electron Calculation, thus no Orbital Energies of the Core Orbitals are calculated



 =======================
 T O T A L   E N E R G Y  ***  (contributions)  ***
 =======================
  

*** Note ***

The requirements to the integration accuracy are somewhat higher than for bond energies.
One can expect an accuracy of roughly (accint-2) decimal places, where accint is the
general integration accuracy parameter.
The Coulomb energy is the sum of the Hartree energy (electron-electron Coulomb interaction)
and the nuclear-electron attraction energy. It includes the correction for the first-order
fit error in the Hartree energy.
The potential energy is the sum of the nuclear repulsion energy, the Coulomb energy,
and the exchange-correlation energy.

Kinetic energy           =           24.533553699421

Nuclear repulsion energy =            0.000000000000
Coulomb energy           =          -45.296883029802
XC energy                =           -3.769745336901
Total potential energy   =          -49.066628366703

----------------------------------------------------
Total energy             =          -24.533074667282
Virial theorem           =            1.999980474409
----------------------------------------------------

 Gross Charges per Atom (Z minus electrons)
 ==========================================
            -0.0000
 Net Total: -0.00000000



 =================================================================
 M U L T I P O L E   D E R I V E D   C H A R G E   A N A L Y S I S
 =================================================================

 This charge analysis uses the atomic multipoles (obtained from the fitted density) up to some level X,
 and reconstructs these multipoles exactly (up to level X) by distributing charges over all atoms.
 This is achieved by using Lagrange multipliers and a weight function to keep the multipoles local.

 Dummy atoms can be included (by setting INCDUM in MDC-block to 1) to obtain a fractional charge.
 This is generally useful and necessary only for small symmetrical molecules, when there are not
 enough degrees of freedom to reconstruct the multipoles.

 Since the atomic multipoles are reconstructed up to level X,
 the molecular multipoles are represented also up to level X.
 The recommended level is to reconstruct up to quadrupole : -> MDC-q charges.

 See: M. Swart, P.Th. van Duijnen, J.G. Snijders, J.Comput.Chem., (2001), p. 79-88.

 ------------------------------------------------------------------------ 
 Atomic electronic multipole moments from SCF equations (a.u.) for spin A
 ------------------------------------------------------------------------ 

   atom        charge        dip-x     dip-y     dip-z      quad-xx   quad-xy   quad-xz   quad-yy   quad-yz   quad-zz
 --------------------------------------------------------------------------------------------------------------------
    1 B     -0.500000     0.000000  0.000000  0.000000     1.335454  0.000166 -0.019914  1.335398  0.022272 -2.670851

 ------------------------------------------------------------------------ 
 Atomic electronic multipole moments from SCF equations (a.u.) for spin B
 ------------------------------------------------------------------------ 

   atom        charge        dip-x     dip-y     dip-z      quad-xx   quad-xy   quad-xz   quad-yy   quad-yz   quad-zz
 --------------------------------------------------------------------------------------------------------------------
    1 B      0.500000    -0.000000 -0.000000 -0.000000    -0.109389 -0.000014  0.001631 -0.109384 -0.001824  0.218773

 ----------------------------------------------------- 
 MDC atomic charges (includes spinA + spinB electrons)
 ----------------------------------------------------- 

 The MDC-m charges are just the Monopole terms in the multipole expansion, while for the MDC-d charges
 also the Dipoles are reconstructed. The usually preferred charges are the MDC-q charges.
 These reconstruct the Monopoles, Dipoles and Quadrupoles (both atomic AND molecular).

 Given here are the atomic charges of both spins added. These should be compared
 to the values from a "normal" RESTRICTED calculation.

        Atom    Level:     MDC-m        MDC-d        MDC-q
 ---------------------------------------------------------
     1     B            0.000000     0.000000     0.000000

 -------------------------------- 
 MDC spin density (spinA - spinB)
 -------------------------------- 
 Reported here are the the number of Alpha-electrons minus the number of Beta-electrons
 per atom, which usually are regarded as spin densities.

        Atom    Level:     MDC-m        MDC-d        MDC-q
 ---------------------------------------------------------
     1     B            1.000000     1.000000     1.000000

 --------------------------------------------- 
 Represented total molecular multipole moments
 --------------------------------------------- 

 Given here are the Molecular multipole moments from the atomic charges, and from the Fit Density.
 Note that the atomic charges represent the latter, NOT the ones from the Exact density.

 Reported here are the Molecular multipole moments of both spins added.
 They should be compared to the values from a "normal" RESTRICTED calculation.

            Q (a.u.)             Dipole moment (Debye)                                          Quadrupole moment (a.u.)
                                 x         y         z              xx        xy        xz        yy        yz        zz
------------------------------------------------------------------------------------------------------------------------
MDC-m         0.0000        0.0000    0.0000    0.0000          0.0000    0.0000    0.0000    0.0000    0.0000    0.0000
MDC-d         0.0000        0.0000    0.0000    0.0000          0.0000    0.0000    0.0000    0.0000    0.0000    0.0000
MDC-q         0.0000        0.0000    0.0000    0.0000          0.0000    0.0000    0.0000    0.0000    0.0000    0.0000
 
Fit.Dens.     0.0000       -0.0000   -0.0000   -0.0000          1.2261    0.0002   -0.0183    1.2260    0.0204   -2.4521



 ==========
 S**2 value  ***  see also R. Bulo et al., J.Am.Chem.Soc., 124 (2002) 13903-13910, note (29)  ***
 ==========
  
                                       exact      expectation value

 Total S2 (S squared)                  0.75000             0.76077



 =============
 Dipole Moment  ***  (Debye)  ***
 =============
  
 Vector   :        -0.00000000      0.00000000     -0.00000000
 Magnitude:         0.00000000

 This molecular dipole moment is calculated with analytic integration



 =========================================
 Quadrupole Moment (Buckingham convention)  ***  (a.u.)  ***
 =========================================
  
      quad-xx        quad-xy        quad-xz        quad-yy        quad-yz        quad-zz
      1.22606584     0.00022868    -0.02742457     1.22601455     0.03067210    -2.45208039

 This molecular quadrupole moment is calculated with analytic integration



 =======================================================================
 Electrostatic potential at the Nuclei due to electrons and other nuclei
 =======================================================================
  
         Atom                  Potential
         ----                  ---------
     1)   B                  11.38055196
 
 
 ========================
 No memory problems found
 ========================
 
 Maximum number of active allocate calls:         509
 
 *******************************************************************************

                             A D F   E X I T
 NORMAL TERMINATION



 =================
 Timing Statistics
 =================
  
 Total Used :                     CPU=        8.75      System=        0.16     Elapsed=        9.16

 Calls  Section                     ( Mean, Percentage )
 ---------------------------------------------------------------------------------------------------
     3  ><      ................      0.00    0.04             0.00    0.00             0.00    0.04
     1  INIT    ................      0.41    4.69             0.00    2.33             0.65    7.07
     1  GEOMET  ................      0.03    0.38             0.02   12.85             0.06    0.60
     1  FRAGM   ................      0.01    0.10             0.00    1.20             0.02    0.19
     1  INPUTA  ................      0.00    0.02             0.00    0.00             0.00    0.02
     1  ATDEN   ................      0.00    0.02             0.00    1.24             0.00    0.04
     1  MAINSY  ................      0.01    0.11             0.00    1.32             0.01    0.13
     1  SYMFIT  ................      0.00    0.01             0.00    0.01             0.00    0.01
     1  CORORT  ................      0.00    0.01             0.00    0.00             0.00    0.01
     1  SYMORB  ................      0.00    0.01             0.00    0.00             0.00    0.01
     1  FITINT  ................      0.01    0.12             0.00    0.00             0.01    0.11
     1  CLSMAT  ................      0.00    0.02             0.00    0.00             0.00    0.02
     1  ORTHON  ................      0.01    0.08             0.00    0.03             0.01    0.09
     1  GENPT   ................      0.02    0.22             0.00    0.00             0.02    0.21
     1  PTBAS   ................      0.01    0.08             0.00    0.64             0.01    0.09
    11  FOCKY   ................      0.68   86.04             0.01   70.74             0.70   83.46
    11  FOCKTR  ................      0.00    0.18             0.00    1.62             0.00    0.20
    11  SDIIS   ................      0.00    0.34             0.00    1.60             0.00    0.35
     1  COREPS  ................      0.62    7.08             0.01    3.86             0.63    6.83
     1  POPAN   ................      0.02    0.25             0.00    1.90             0.03    0.34
     1  DEBYE   ................      0.00    0.03             0.00    0.00             0.00    0.03
     1  EXIT PROCEDURE .........      0.01    0.16             0.00    0.64             0.02    0.17


 Currently Open Files (EXIT00)
 ====================

 Unit    Access Format  Status   Type       Ident (file)
 -------------------------------------------------------
   3      SEQ    FORM   TRANSP  NORMAL      LOGFILE
                                          ( logfile )


 Buffered I/O statistics
 =======================
 Memory available:                     67108864
 Number of records fitting in memory:     16131
 Input :   0.2% of                        42872  *4k bytes
 Output:   8.1% of                         5488  *4k bytes
 Records from serial files evicted:           0
                    others evicted:           0
 Hash table lookups:     104074 with          0 conflicts (  0.00%)

 ***************************************************************************************************
 (LOGFILE)
 <Mar23-2019> <10:00:02>  ADF 2018  RunTime: Mar23-2019 10:00:02  Nodes: 1  Procs: 1
 <Mar23-2019> <10:00:02>  Boron (QZ, all electron, 7S 4P 2D 2F)
 <Mar23-2019> <10:00:02>  RunType   : CREATE
 <Mar23-2019> <10:00:02>  Net Charge: 0 (Nuclei minus Electrons)
 <Mar23-2019> <10:00:02>  Symmetry  : ATOM
  Coordinates
    Atom         X           Y           Z   (Angstrom)
    1.B         0.000000    0.000000    0.000000
 <Mar23-2019> <10:00:02>  >>>> CORORT
 <Mar23-2019> <10:00:02>  >>>> FITINT
 <Mar23-2019> <10:00:02>  >>>> CLSMAT
 <Mar23-2019> <10:00:02>  >>>> ORTHON
 <Mar23-2019> <10:00:02>  >>>> GENPT
 <Mar23-2019> <10:00:02>  Block Length=  72
 <Mar23-2019> <10:00:02>  >>>> PTBAS
 <Mar23-2019> <10:00:02>  >>>> CYCLE
 <Mar23-2019> <10:00:02>  CalcFitR12Fit
 <Mar23-2019> <10:00:02>  CalcFitCoeff
 <Mar23-2019> <10:00:02>              |Error|         MaxErr       Wt(A-DIIS)
 <Mar23-2019> <10:00:02>      1      0.00000000      0.00000000
 <Mar23-2019> <10:00:02>      2      3.24566858      2.49119887    100.0
 <Mar23-2019> <10:00:02>      3      0.36977601      0.23268529    100.0
 <Mar23-2019> <10:00:02>      4      0.12810493      0.08859919     88.5
 <Mar23-2019> <10:00:02>      5      0.04659177      0.03422501     33.6
 <Mar23-2019> <10:00:02>      6      0.00656112      0.00456399      3.6
 <Mar23-2019> <10:00:02>      7      0.00015280      0.00010011      0.0
 <Mar23-2019> <10:00:02>      8      0.00001983      0.00001330      0.0
 <Mar23-2019> <10:00:02>      9      0.00000496      0.00000341      0.0
 <Mar23-2019> <10:00:03>     10      0.00000023      0.00000015      0.0
 <Mar23-2019> <10:00:03>     11      0.00000000      0.00000000      0.0
 <Mar23-2019> <10:00:03>  SCF converged
 <Mar23-2019> <10:00:03>     12      0.00000000      0.00000000      0.0
 <Mar23-2019> <10:00:03>  >>>> POPAN
 <Mar23-2019> <10:00:03>  >>>> DEBYE
 <Mar23-2019> <10:00:03>  NORMAL TERMINATION
 <Mar23-2019> <10:00:03>  END
 <Mar23-2019> <10:00:03>  ADF 2018  RunTime: Mar23-2019 10:00:03  Nodes: 1  Procs: 4
 <Mar23-2019> <10:00:03>  B
 <Mar23-2019> <10:00:03>  RunType   : SINGLE POINT
 <Mar23-2019> <10:00:03>  Net Charge: 0 (Nuclei minus Electrons)
 <Mar23-2019> <10:00:03>  Spin polar: 1 (Spin_A minus Spin_B electrons)
 <Mar23-2019> <10:00:03>  Symmetry  : NOSYM
 <Mar23-2019> <10:00:03>  >>>> FRAGM
  Coordinates
    Atom         X           Y           Z   (Angstrom)
    1.B         0.000000    0.000000    0.000000
 <Mar23-2019> <10:00:03>  >>>> CORORT
 <Mar23-2019> <10:00:03>  >>>> FITINT
 <Mar23-2019> <10:00:03>  >>>> CLSMAT
 <Mar23-2019> <10:00:03>  >>>> ORTHON
 <Mar23-2019> <10:00:03>  >>>> GENPT
 <Mar23-2019> <10:00:03>  Block Length=  98
 <Mar23-2019> <10:00:03>  >>>> PTBAS
 <Mar23-2019> <10:00:04>  >>>> CYCLE
 <Mar23-2019> <10:00:04>  CalcFitR12Fit
 <Mar23-2019> <10:00:04>  CalcFitCoeff
 <Mar23-2019> <10:00:05>              |Error|         MaxErr       Wt(A-DIIS)
 <Mar23-2019> <10:00:05>      1      0.00000355      0.00000104
 <Mar23-2019> <10:00:05>      2      0.12068123      0.06694951    100.0
 <Mar23-2019> <10:00:06>      3      0.06800682      0.03180774    100.0
 <Mar23-2019> <10:00:07>      4      0.03681754      0.01628026     15.4
 <Mar23-2019> <10:00:07>      5      0.00704287      0.00282572      1.8
 <Mar23-2019> <10:00:08>      6      0.00164770      0.00072480      0.0
 <Mar23-2019> <10:00:09>      7      0.00021511      0.00007022      0.0
 <Mar23-2019> <10:00:09>      8      0.00002605      0.00000928      0.0
 <Mar23-2019> <10:00:10>      9      0.00000333      0.00000136      0.0
 <Mar23-2019> <10:00:11>     10      0.00000052      0.00000024      0.0
 <Mar23-2019> <10:00:11>  SCF converged
 <Mar23-2019> <10:00:11>     11      0.00000008      0.00000004      0.0
 <Mar23-2019> <10:00:12>   Total energy        -24.53307467 a.u.
 <Mar23-2019> <10:00:12>  >>>> POPAN
 <Mar23-2019> <10:00:12>  >>>> DEBYE
 <Mar23-2019> <10:00:12>  NORMAL TERMINATION
 <Mar23-2019> <10:00:12>  END
