 
Create N   file=TZ2P-N
XC
  HartreeFock
End
  HartreeFock

 *******************************************************************************
 *                                                                             *
 *  -------------------------------------                                      *
 *   Amsterdam Density Functional  (ADF)         2018                          *
 *  -------------------------------------                                      *
 *                                               r70630 2018-11-24             *
 *                                                                             *
 *                                                                             *
 *                              =================                              *
 *                              |               |                              *
 *                              |     A D F     |                              *
 *                              |               |                              *
 *                              =================                              *
 *                                                                             *
 *                                                                             *
 *   Online information and documentation:  https://www.scm.com/support/       *
 *   E-mail:  support@scm.com   info@scm.com                                   *
 *                                                                             *
 *   Scientific publications using ADF results must be properly referenced     *
 *   See the User Manuals (or the web site) for recommended citations          *
 *   The terms and conditions of the End User License Agreement apply to       *
 *   the use of ADF, https://www.scm.com/license-terms/                        *
 *                                                                             *
 **********************  x86_64_linux_intel / intelmpi  ************************
 
 Licensed to: Mr. Vladimir Konjkov / Florida Institute of Technology / Melbourne / Florida / USA
 SCM User ID: u21173
  
 ADF 2018  RunTime: Mar23-2019 10:00:01  Nodes: 1  Procs: 1

 Temporary files are created in /tmp/kid_0.561275276

 Nitrogen (TZ2P)



 ===========================
 A T T A C H E D   F I L E S
 ===========================
  
 CREATE - Data File:    TZ2P-N
                        Nitrogen (TZ2P)



 ===============================
 M O D E L   P A R A M E T E R S
 ===============================
  
 DENSITY FUNCTIONAL POTENTIAL (scf)
    Hybrid:                            HARTREEFOCK                             == Not Default ==

 SPIN  (restricted / unrestr.)
    Molecule:                          Restricted                               

 OTHER ASPECTS
    Relativistic Corrections:          ---                                      

    Nuclear Charge Density Model:      Point Charge Nuclei                      
    Core Treatment:                    Frozen Orbital(s)                        

    Hyperfine or Zeeman Interaction:   ---                                      



 =====================================
 S Y M M E T R Y ,   E L E C T R O N S
 =====================================
  
 Symmetry: ATOM

 Irreducible Representations, including subspecies
 -------------------------------------------------
 S
 P:x  P:y  P:z
 D:z2  D:x2-y2  D:xy  D:xz  D:yz
 F:z3  F:z  F:xyz  F:z2x  F:z2y  F:x  F:y


 Configuration of Valence Electrons
 ==================================

          Occupation Numbers
          -------------------------------------------------
 S        2*2
 P        3
 D        0
 F        0
          -------------------------------------------------

 Total:   7

 Net Charge: 0 (Nuclei minus Electrons)

 Preset values for MO occupations will be applied through SCF cycle no. 1000000
 Thereafter, the program will assign electrons to MOs that are spatially
 similar to the occupied MOs in a "reference" cycle ("KeepOrbitals").
 The reference cycle is always the PREVIOUS cycle: it will evolve with
 the SCF procedure.



 ================================
 (Slater-type)  F U N C T I O N S  ***  (Basis and Fit)  ***
 ================================
  

 Atom Type    1  (N)
 ==============

 Valence Basis Sets:  10
 -----------------------
   1 S    8.740000
   1 S    5.900000
   2 S    5.150000
   2 S    2.500000
   2 S    1.500000
   2 P    3.680000
   2 P    1.880000
   2 P    1.000000
   3 D    2.200000
   4 F    3.300000

 Charge Fitting Sets (for the computation of the Coulomb Potential):  22
 -----------------------------------------------------------------------
   1 S   17.480000
   2 S   20.150000
   2 S   13.990000
   2 S    9.710000
   2 S    6.740000
   3 S    6.860000
   3 S    5.040000
   3 S    3.700000
   3 S    2.720000
   3 S    2.000000
   2 P   11.320000
   2 P    6.730000
   3 P    5.920000
   3 P    3.820000
   3 P    2.460000
   3 D    8.100000
   3 D    5.080000
   3 D    3.190000
   3 D    2.000000
   4 F    5.800000
   4 F    3.600000
   5 G    4.500000


 BAS: List of all Elementary Cartesian Basis Functions
 =====================================================

 The numbering in the list below (to the right of the function characteristics) is referred
 to in print-outs of MO eigenvectors and Mulliken populations in the BAS representation
 (as contrasted to the SFO representation).

 Notes:
 1. The functions are characterized by a polynomial prefactor (powers of x,y,z and r) and
    an exponential decay factor alpha.
 2. Since the basis sets are specific for an atom TYPE, the individual functions occur on
    all atoms of that type.
 3. The word 'Core' in the left margin signals that it is a Core Function (CF) : not a
    degree of freedom in the valence set, but only used to ensure orthogonalization of
    the other valence basis functions on the frozen Core Orbitals.


 (power of) X  Y  Z  R     Alpha  on Atom
            ==========     =====     ==========

 N                                    1
                                  ---------------------------------------------------------------------------
            0  0  0  0     8.740      1
            0  0  0  0     5.900      2
            0  0  0  1     5.150      3
            0  0  0  1     2.500      4
            0  0  0  1     1.500      5
            1  0  0  0     3.680      6
            0  1  0  0     3.680      7
            0  0  1  0     3.680      8
            1  0  0  0     1.880      9
            0  1  0  0     1.880     10
            0  0  1  0     1.880     11
            1  0  0  0     1.000     12
            0  1  0  0     1.000     13
            0  0  1  0     1.000     14
            2  0  0  0     2.200     15
            1  1  0  0     2.200     16
            1  0  1  0     2.200     17
            0  2  0  0     2.200     18
            0  1  1  0     2.200     19
            0  0  2  0     2.200     20
            3  0  0  0     3.300     21
            2  1  0  0     3.300     22
            2  0  1  0     3.300     23
            1  2  0  0     3.300     24
            1  1  1  0     3.300     25
            1  0  2  0     3.300     26
            0  3  0  0     3.300     27
            0  2  1  0     3.300     28
            0  1  2  0     3.300     29
            0  0  3  0     3.300     30

 Total number of charge fitting functions (nprimf)        84
 Total number of Cartesian basis functions (naos)         30
 Total number of Cartesian core functions  (ncos)          0



 BAS: List of all Elementary Cartesian Basis Functions
 =====================================================

 The numbering in the list below (to the right of the function characteristics) is referred
 to in print-outs of MO eigenvectors and Mulliken populations in the BAS representation
 (as contrasted to the SFO representation).

 Notes:
 1. The functions are characterized by a polynomial prefactor (powers of x,y,z and r) and
    an exponential decay factor alpha.
 2. Since the basis sets are specific for an atom TYPE, the individual functions occur on
    all atoms of that type.
 3. The word 'Core' in the left margin signals that it is a Core Function (CF) : not a
    degree of freedom in the valence set, but only used to ensure orthogonalization of
    the other valence basis functions on the frozen Core Orbitals.


 (power of) X  Y  Z  R     Alpha  on Atom
            ==========     =====     ==========

 N                                    1
                                  ---------------------------------------------------------------------------
            0  0  0  0     8.740      1
            0  0  0  0     5.900      2
            0  0  0  1     5.150      3
            0  0  0  1     2.500      4
            0  0  0  1     1.500      5
            1  0  0  0     3.680      6
            0  1  0  0     3.680      7
            0  0  1  0     3.680      8
            1  0  0  0     1.880      9
            0  1  0  0     1.880     10
            0  0  1  0     1.880     11
            1  0  0  0     1.000     12
            0  1  0  0     1.000     13
            0  0  1  0     1.000     14
            2  0  0  0     2.200     15
            1  1  0  0     2.200     16
            1  0  1  0     2.200     17
            0  2  0  0     2.200     18
            0  1  1  0     2.200     19
            0  0  2  0     2.200     20
            3  0  0  0     3.300     21
            2  1  0  0     3.300     22
            2  0  1  0     3.300     23
            1  2  0  0     3.300     24
            1  1  1  0     3.300     25
            1  0  2  0     3.300     26
            0  3  0  0     3.300     27
            0  2  1  0     3.300     28
            0  1  2  0     3.300     29
            0  0  3  0     3.300     30
1
 ***************************************************************************************************



                                              ***********************
                                              *  T E C H N I C A L  *
                                              ***********************
  



 =============================================================
 P A R A L L E L I Z A T I O N  and  V E C T O R I Z A T I O N
 =============================================================
  
 Nr of parallel processes:                                1
 Maximum vector length in NumInt loops:                 128

 IO buffersize (Mb):                                     64.000000



 =====================
 S C F   U P D A T E S
 =====================
  
 Max. nr. of cycles:                               300
 Convergence criterion:                              0.0000000100
   secondary criterion:                              0.0000000100

 Mix parameter (when DIIS does not apply):           0.2000000000
 Special mix parameter for the first cycle:          1.0000000000
 Mixed ADIIS+DIIS will be used
    Max number of expansion vectors:                10
    Pure ADIIS when Max([F,P]) is above              0.1000000000
    Pure DIIS when Max([F,P]) is below               0.0010000000
 Automatic ElectronSmearing (in case of problematic SCF convergence) disabled



 =================
 P R E C I S I O N  ***  (General: NumInt, NeglectFunctionTails, ...)  ***
 =================
  

 NumInt:           Target precision:                12.0000000000
 -------           Initial precision:               10.0000000000
                   Min. precision (optimization):   10.0000000000

 Neglect Functions:          Basis functions:        0.1000000000E-13
 ------------------          Fit functions:          0.1000000000E-13



 ===========================
 L I N E A R   S C A L I N G
 ===========================
  

 Cut-off radii density fit:                        0.1000000000E-97
 Overlap cut-off criterion AO matrix elements:     0.1000000000E-97
 Cut-offs for Coulomb potential and fitted density:0.1000000000E-97
 Cut-off criterion for Coulomb multipole terms:    0.1000000000E-97
 Progressive Convergence parameter:                 0.000000000    
1
 ***************************************************************************************************



                                            ***************************
                                            *  C O M P U T A T I O N  *
                                            ***************************
  

 Number of elements of the density matrix on this node (used, total):       465       465



 ===========================================
 Numerical Integration : Fuzzy Cells (Becke)
 ===========================================
  
 Becke grid quality: VERYGOOD       
  
 Lebedev angular grid order:             min:  13 max:  41
 Nr. of radial points:                   min:  72 max:  72

 Total nr. of points:         72
 Nr. of blocks:                1
 Block length:                72
 Nr. of dummy points:          0


 Test of Precision of the Numerical Integration Grid
 ===================================================

 Integral of the Total Core Density:                   0.00000000000000



 ========================
 Density Fitting (zlmFit)
 ========================
  
 ZlmFit Fit Quality: VERYGOOD       
  
 Max L-expansion:                        min:   0 max:   0
 Nr. of radial interpolation points:     min: 160 max: 160



 ======================
 RI Hartree-Fock Scheme
 ======================
  
 Fit Set Quality     : NORMAL
 Integration Quality : NORMAL
 Threshold Quality   : NORMAL
 Response Quality    : DEFAULT
 Is Range Separated  :  F
 
 RIHartreeFock Dependency: number of modified vectors:           0



 =====
 S C F  ***  ScaSCF  ***
 =====
  

 CYCLE    1
 SCF Error: norm([F,P])=      0.000000000000, max([F,P])=      0.000000000000
 orbitals (Q,E):
 ---------------
 S :1...5            ( 2.00   -24.4993)  ( 2.00    -6.1004)  ( 0.00    -2.6599)  ( 0.00     0.7211)
                     ( 0.00    54.4424)
 P :1...3            ( 3.00    -6.1210)  ( 0.00    -2.6439)  ( 0.00    -1.4084)
 D :1...1            ( 0.00    -2.7133)
 F :1...1            ( 0.00    -0.3300)

 CYCLE    2
  SDIIS (wt  0.000):  1.0000 -0.0000
 A-DIIS (wt  1.000):  0.0000  1.0000
  DIIS coefficients:  0.0000  1.0000
 SCF Error: norm([F,P])=      6.568824591390, max([F,P])=      4.172702936128
 orbitals (Q,E):
 ---------------
 S :1...3            ( 2.00   -12.5303)  ( 2.00    -0.1528)  ( 0.00     1.0917)
 P :1...2            ( 3.00     0.2630)  ( 0.00     1.0151)
 D :1...1            ( 0.00     2.1374)
 F :1...1            ( 0.00     5.1530)

 CYCLE    3
  SDIIS (wt  0.000):  0.1427  0.8573
 A-DIIS (wt  1.000):  0.0000  1.0000
  DIIS coefficients:  0.0000  1.0000
 SCF Error: norm([F,P])=      1.724820947190, max([F,P])=      1.334858053684
 orbitals (Q,E):
 ---------------
 S :1...3            ( 2.00   -17.4524)  ( 2.00    -1.7077)  ( 0.00     0.2755)
 P :1...2            ( 3.00    -0.8658)  ( 0.00     0.1237)
 D :1...1            ( 0.00     0.9421)
 F :1...1            ( 0.00     3.6835)

 CYCLE    4
  SDIIS (wt  0.000): -0.0627  0.2782  0.7845
 A-DIIS (wt  1.000):  0.0000  0.0000  1.0000
  DIIS coefficients:  0.0000  0.0000  1.0000
 SCF Error: norm([F,P])=      1.055283794703, max([F,P])=      0.631833081118
 orbitals (Q,E):
 ---------------
 S :1...3            ( 2.00   -15.0157)  ( 2.00    -0.7638)  ( 0.00     0.8802)
 P :1...2            ( 3.00    -0.0329)  ( 0.00     0.5838)
 D :1...1            ( 0.00     1.7634)
 F :1...1            ( 0.00     4.7031)

 CYCLE    5
  SDIIS (wt  0.000): -0.0106 -0.1151  0.2778  0.8479
 A-DIIS (wt  1.000):  0.0000  0.0000  0.0090  0.9910
  DIIS coefficients:  0.0000  0.0000  0.0090  0.9910
 SCF Error: norm([F,P])=      0.481351744293, max([F,P])=      0.331127000391
 orbitals (Q,E):
 ---------------
 S :1...3            ( 2.00   -16.2396)  ( 2.00    -1.2002)  ( 0.00     0.6261)
 P :1...2            ( 3.00    -0.4023)  ( 0.00     0.3891)
 D :1...1            ( 0.00     1.4017)
 F :1...1            ( 0.00     4.2555)

 CYCLE    6
  SDIIS (wt  0.000):  0.0010 -0.0058 -0.1177  0.2429  0.8796
 A-DIIS (wt  1.000):  0.0000  0.0000  0.0000  0.0000  1.0000
  DIIS coefficients:  0.0000  0.0000  0.0000  0.0000  1.0000
 SCF Error: norm([F,P])=      0.252309651754, max([F,P])=      0.164122515039
 orbitals (Q,E):
 ---------------
 S :1...3            ( 2.00   -15.6159)  ( 2.00    -0.9636)  ( 0.00     0.7717)
 P :1...2            ( 3.00    -0.1988)  ( 0.00     0.4974)
 D :1...1            ( 0.00     1.6034)
 F :1...1            ( 0.00     4.5055)

 CYCLE    7
  SDIIS (wt  0.194):  0.0000  0.0025  0.0013 -0.1390  0.1976  0.9375
 A-DIIS (wt  0.806):  0.0000  0.0000  0.0000  0.0000  0.0000  1.0000
  DIIS coefficients:  0.0000  0.0005  0.0003 -0.0270  0.0384  0.9878
 SCF Error: norm([F,P])=      0.121079209369, max([F,P])=      0.080761684086
 orbitals (Q,E):
 ---------------
 S :1...3            ( 2.00   -15.9061)  ( 2.00    -1.0692)  ( 0.00     0.7087)
 P :1...2            ( 3.00    -0.2897)  ( 0.00     0.4501)
 D :1...1            ( 0.00     1.5143)
 F :1...1            ( 0.00     4.3952)

 CYCLE    8
  SDIIS (wt  0.676):  0.0000  0.0008 -0.0016 -0.0338  0.3810  0.6536
 A-DIIS (wt  0.324):  0.0000  0.0000  0.0000  0.0000  0.0000  1.0000
  DIIS coefficients:  0.0000  0.0005 -0.0011 -0.0229  0.2577  0.7657
 SCF Error: norm([F,P])=      0.049847748703, max([F,P])=      0.033050108583
 orbitals (Q,E):
 ---------------
 S :1...3            ( 2.00   -15.8090)  ( 2.00    -1.0329)  ( 0.00     0.7308)
 P :1...2            ( 3.00    -0.2585)  ( 0.00     0.4665)
 D :1...1            ( 0.00     1.5450)
 F :1...1            ( 0.00     4.4333)

 CYCLE    9
  SDIIS (wt  0.959): -0.0000  0.0001  0.0028  0.0084 -0.1004  0.6083  0.4808
 A-DIIS (wt  0.041):  0.0000  0.0000  0.0000  0.0000  0.0000  0.0000  1.0000
  DIIS coefficients: -0.0000  0.0001  0.0026  0.0081 -0.0962  0.5831  0.5023
 SCF Error: norm([F,P])=      0.007767814400, max([F,P])=      0.005101744698
 orbitals (Q,E):
 ---------------
 S :1...3            ( 2.00   -15.8227)  ( 2.00    -1.0379)  ( 0.00     0.7278)
 P :1...2            ( 3.00    -0.2628)  ( 0.00     0.4643)
 D :1...1            ( 0.00     1.5408)
 F :1...1            ( 0.00     4.4280)

 CYCLE   10
  SDIIS (wt  1.000): -0.0000 -0.0000  0.0002  0.0050  0.0020 -0.0826 -0.0617  0.6933  0.4439
  DIIS coefficients: -0.0000 -0.0000  0.0002  0.0050  0.0020 -0.0826 -0.0617  0.6933  0.4439
 SCF Error: norm([F,P])=      0.000206986872, max([F,P])=      0.000139823858
 orbitals (Q,E):
 ---------------
 S :1...3            ( 2.00   -15.8223)  ( 2.00    -1.0378)  ( 0.00     0.7279)
 P :1...2            ( 3.00    -0.2627)  ( 0.00     0.4643)
 D :1...1            ( 0.00     1.5409)
 F :1...1            ( 0.00     4.4282)

 CYCLE   11
  SDIIS (wt  1.000): -0.0000  0.0000  0.0000 -0.0000  0.0001 -0.0007  0.0008  0.0143 -0.1955  1.1810
  DIIS coefficients: -0.0000  0.0000  0.0000 -0.0000  0.0001 -0.0007  0.0008  0.0143 -0.1955  1.1810
 SCF Error: norm([F,P])=      0.000001535353, max([F,P])=      0.000000724395
 orbitals (Q,E):
 ---------------
 S :1...3            ( 2.00   -15.8223)  ( 2.00    -1.0378)  ( 0.00     0.7279)
 P :1...2            ( 3.00    -0.2627)  ( 0.00     0.4643)
 D :1...1            ( 0.00     1.5409)
 F :1...1            ( 0.00     4.4282)

 CYCLE   12
  SDIIS (wt  1.000):  0.0000  0.0000 -0.0000 -0.0002  0.0019 -0.0219  1.0202
  DIIS coefficients:  0.0000  0.0000 -0.0000 -0.0002  0.0019 -0.0219  1.0202
 SCF Error: norm([F,P])=      0.000000128705, max([F,P])=      0.000000092555
 orbitals (Q,E):
 ---------------
 S :1...3            ( 2.00   -15.8223)  ( 2.00    -1.0378)  ( 0.00     0.7279)
 P :1...2            ( 3.00    -0.2627)  ( 0.00     0.4643)
 D :1...1            ( 0.00     1.5409)
 F :1...1            ( 0.00     4.4282)

 CYCLE   13
  SDIIS (wt  1.000):  0.0000  0.0001  0.0035  0.9964
  DIIS coefficients:  0.0000  0.0001  0.0035  0.9964
 SCF Error: norm([F,P])=      0.000000000626, max([F,P])=      0.000000000454
 orbitals (Q,E):
 ---------------
 S :1...3            ( 2.00   -15.8223)  ( 2.00    -1.0378)  ( 0.00     0.7279)
 P :1...2            ( 3.00    -0.2627)  ( 0.00     0.4643)
 D :1...1            ( 0.00     1.5409)
 F :1...1            ( 0.00     4.4282)

 SCF CONVERGED

 CYCLE   14
1
 ***************************************************************************************************



                                                *******************
                                                *  R E S U L T S  *
                                                *******************
  
  
 Hartree-Fock exchange energy:   -5.93261526331530     
 *** Setting up for NEW gradients in Focky
 *** Using FIT density in Focky

 Orbital Energies, per Irrep and Spin:
 ======================================
                        Occup              E (au)              E (eV)       Diff (eV) with prev. cycle
                        -----      --------------------        ------       --------------------------
 S
               1        2.000     -0.15822348299254E+02      -430.548               2.41E-10
               2        2.000     -0.10377645165748E+01       -28.239               1.20E-10
               3        0.000      0.72785702214773E+00        19.806
               4        0.000      0.74824799408622E+01       203.609
               5        0.000      0.66107968131581E+02      1798.889
 P
               1        3.000     -0.26274496184556E+00        -7.150               1.47E-10
               2        0.000      0.46433005690455E+00        12.635
               3        0.000      0.38141557764270E+01       103.788
 D
               1        0.000      0.15409309529846E+01        41.931
 F
               1        0.000      0.44281698859510E+01       120.497


 Partially Occupied:
               1 P                -0.26274496184556E+00
  
 HOMO :        2 S                -0.10377645165748E+01
 LUMO :        2 P                 0.46433005690455E+00
  


 Orbital Energies, all Irreps
 ========================================

 Irrep        no.  (spin)   Occup              E (au)                E (eV)
 ---------------------------------------------------------------------------
 S             1             2.00       -0.15822348299254E+02      -430.5480
 S             2             2.00       -0.10377645165748E+01       -28.2390
 P             1             3.00       -0.26274496184556E+00        -7.1497
 P             2             0.00        0.46433005690455E+00        12.6351
 S             3             0.00        0.72785702214773E+00        19.8060
 D             1             0.00        0.15409309529846E+01        41.9309
 P             3             0.00        0.38141557764270E+01       103.7885
 F             1             0.00        0.44281698859510E+01       120.4966
 S             4             0.00        0.74824799408622E+01       203.6086
 S             5             0.00        0.66107968131581E+02      1798.8893


 All Electron Calculation, thus no Orbital Energies of the Core Orbitals are calculated



 =======================================
 M U L L I K E N   P O P U L A T I O N S
 =======================================
  
 The survey below gives for each atom:
 a) the total charge (Z minus electrons)
 b) the net spin polarization (nr of electrons spin-A minus spin-B)
 c) for each spin the atomic electron valence density (integrated) per L-value.

 Atom              Charge    Spin density          S         P         D         F
 ----              ------    ------------       ------    ------    ------    ------
 1 N              -0.0000                       4.0000    3.0000    0.0000    0.0000

 Populations of individual BAS functions
 ----------------------------------------
 1 N            0.4693  1.5615 -0.1047  1.2429  0.8310  0.1160  0.1160  0.1160  0.5017  0.5017
                0.5017  0.3823  0.3823  0.3823  0.0000  0.0000  0.0000  0.0000  0.0000  0.0000
                0.0000  0.0000  0.0000  0.0000  0.0000  0.0000  0.0000  0.0000  0.0000  0.0000

 Gross Charges per Atom (Z minus electrons)
 ==========================================
            -0.0000
 Net Total: -0.00000000



 =======================================================================
 Electrostatic potential at the Nuclei due to electrons and other nuclei
 =======================================================================
  
         Atom                  Potential
         ----                  ---------
     1)   N                  18.14891649
 
 
 ========================
 No memory problems found
 ========================
 
 Maximum number of active allocate calls:         454
 
 *******************************************************************************

                             A D F   E X I T
 NORMAL TERMINATION



 =================
 Timing Statistics
 =================
  
 Total Used :                     CPU=        0.69      System=        0.05     Elapsed=        1.94

 Calls  Section                     ( Mean, Percentage )
 ---------------------------------------------------------------------------------------------------
     3  ><      ................      0.00    0.39             0.00    0.01             0.00    0.15
     1  INIT    ................      0.03    4.65             0.00    5.71             1.19   61.57
     1  GEOMET  ................      0.02    3.50             0.03   48.38             0.05    2.64
     1  INPUTA  ................      0.00    0.43             0.00    0.16             0.00    0.16
     1  MAINSY  ................      0.01    1.03             0.00    3.47             0.01    0.48
     1  SYMFIT  ................      0.00    0.14             0.00    0.03             0.00    0.05
     1  CORORT  ................      0.00    0.10             0.00    0.00             0.00    0.04
     1  SYMORB  ................      0.00    0.05             0.00    0.74             0.00    0.04
     1  FITINT  ................      0.01    1.11             0.00    1.24             0.01    0.43
     1  CLSMAT  ................      0.00    0.20             0.00    0.00             0.00    0.08
     1  ORTHON  ................      0.01    0.74             0.00    1.70             0.01    0.43
     1  GENPT   ................      0.01    1.93             0.00    0.06             0.01    0.72
     1  PTBAS   ................      0.00    0.38             0.00    1.82             0.00    0.21
    14  FOCKY   ................      0.04   73.85             0.00   26.53             0.04   28.07
    14  FOCKTR  ................      0.00    1.54             0.00    1.51             0.00    0.59
    14  SDIIS   ................      0.00    4.56             0.00    4.92             0.00    2.24
     1  COREPS  ................      0.02    2.27             0.00    3.63             0.02    0.94
     1  POPAN   ................      0.01    0.93             0.00    0.09             0.01    0.33
     1  DEBYE   ................      0.00    0.21             0.00    0.00             0.00    0.09
     1  EXIT PROCEDURE .........      0.01    1.99             0.00    0.00             0.01    0.74


 Currently Open Files (EXIT00)
 ====================

 Unit    Access Format  Status   Type       Ident (file)
 -------------------------------------------------------
   3      SEQ    FORM   TRANSP  NORMAL      LOGFILE
                                          ( logfile )


 Buffered I/O statistics
 =======================
 Memory available:                     67108864
 Number of records fitting in memory:     16131
 Input :   0.1% of                        41032  *4k bytes
 Output:  10.9% of                         1858  *4k bytes
 Records from serial files evicted:           0
                    others evicted:           0
 Hash table lookups:      81971 with          0 conflicts (  0.00%)

 ***************************************************************************************************
 (LOGFILE)
 <Mar23-2019> <10:00:01>  ADF 2018  RunTime: Mar23-2019 10:00:01  Nodes: 1  Procs: 1
 <Mar23-2019> <10:00:01>  Nitrogen (TZ2P)
 <Mar23-2019> <10:00:01>  RunType   : CREATE
 <Mar23-2019> <10:00:01>  Net Charge: 0 (Nuclei minus Electrons)
 <Mar23-2019> <10:00:01>  Symmetry  : ATOM
  Coordinates
    Atom         X           Y           Z   (Angstrom)
    1.N         0.000000    0.000000    0.000000
 <Mar23-2019> <10:00:01>  >>>> CORORT
 <Mar23-2019> <10:00:01>  >>>> FITINT
 <Mar23-2019> <10:00:01>  >>>> CLSMAT
 <Mar23-2019> <10:00:01>  >>>> ORTHON
 <Mar23-2019> <10:00:01>  >>>> GENPT
 <Mar23-2019> <10:00:01>  Block Length=  72
 <Mar23-2019> <10:00:01>  >>>> PTBAS
 <Mar23-2019> <10:00:01>  >>>> CYCLE
 <Mar23-2019> <10:00:01>  CalcFitR12Fit
 <Mar23-2019> <10:00:01>  CalcFitCoeff
 <Mar23-2019> <10:00:01>              |Error|         MaxErr       Wt(A-DIIS)
 <Mar23-2019> <10:00:01>      1      0.00000000      0.00000000
 <Mar23-2019> <10:00:01>      2      6.56882459      4.17270294    100.0
 <Mar23-2019> <10:00:01>      3      1.72482095      1.33485805    100.0
 <Mar23-2019> <10:00:01>      4      1.05528379      0.63183308    100.0
 <Mar23-2019> <10:00:01>      5      0.48135174      0.33112700    100.0
 <Mar23-2019> <10:00:02>      6      0.25230965      0.16412252    100.0
 <Mar23-2019> <10:00:02>      7      0.12107921      0.08076168     80.6
 <Mar23-2019> <10:00:02>      8      0.04984775      0.03305011     32.4
 <Mar23-2019> <10:00:02>      9      0.00776781      0.00510174      4.1
 <Mar23-2019> <10:00:02>     10      0.00020699      0.00013982      0.0
 <Mar23-2019> <10:00:02>     11      0.00000154      0.00000072      0.0
 <Mar23-2019> <10:00:02>     12      0.00000013      0.00000009      0.0
 <Mar23-2019> <10:00:02>     13      0.00000000      0.00000000      0.0
 <Mar23-2019> <10:00:02>  SCF converged
 <Mar23-2019> <10:00:02>     14      0.00000000      0.00000000      0.0
 <Mar23-2019> <10:00:02>  >>>> POPAN
 <Mar23-2019> <10:00:02>  >>>> DEBYE
 <Mar23-2019> <10:00:02>  NORMAL TERMINATION
 <Mar23-2019> <10:00:02>  END


 Parallel Execution: Process Information
 ==============================================================================
 Rank   Node Name                              NodeID   MyNodeRank  NodeMaster
    0   vladimir-kubuntu                          0          0          0
    1   vladimir-kubuntu                          0          1         -1
    2   vladimir-kubuntu                          0          2         -1
    3   vladimir-kubuntu                          0          3         -1
 ==============================================================================


May use up to 7569MB of RAM as shared memory on node 0
 
Title N

ATOMS
 N         0.000000000000      0.000000000000      0.000000000000
END

CHARGE 0 3

UNRESTRICTED

XC
  HartreeFock
END

NUMERICALQUALITY excellent

EPRINT
  SFO NOEIG NOOVL NOORBPOP
  SCF NOPOP
END

NOPRINT BAS FUNCTIONS

TOTALENERGY
NOTOTEN

Fragments
N t21.N
End

 *******************************************************************************
 *                                                                             *
 *  -------------------------------------                                      *
 *   Amsterdam Density Functional  (ADF)         2018                          *
 *  -------------------------------------                                      *
 *                                               r70630 2018-11-24             *
 *                                                                             *
 *                                                                             *
 *                              =================                              *
 *                              |               |                              *
 *                              |     A D F     |                              *
 *                              |               |                              *
 *                              =================                              *
 *                                                                             *
 *                                                                             *
 *   Online information and documentation:  https://www.scm.com/support/       *
 *   E-mail:  support@scm.com   info@scm.com                                   *
 *                                                                             *
 *   Scientific publications using ADF results must be properly referenced     *
 *   See the User Manuals (or the web site) for recommended citations          *
 *   The terms and conditions of the End User License Agreement apply to       *
 *   the use of ADF, https://www.scm.com/license-terms/                        *
 *                                                                             *
 **********************  x86_64_linux_intel / intelmpi  ************************
 
 Licensed to: Mr. Vladimir Konjkov / Florida Institute of Technology / Melbourne / Florida / USA
 SCM User ID: u21173
  
 ADF 2018  RunTime: Mar23-2019 10:00:02  Nodes: 1  Procs: 4

 Temporary files are created in /tmp/kid_0.1463106595


Communication costs MPI_COMM_WORLD:      0.244 usec per message,   0.0037 usec per 8-byte item
Communication costs for intra-node:      0.295 usec per message,   0.0041 usec per 8-byte item

 N



 ===========================
 A T T A C H E D   F I L E S
 ===========================
  



 ===============================
 M O D E L   P A R A M E T E R S
 ===============================
  
 DENSITY FUNCTIONAL POTENTIAL (scf)
    Hybrid:                            HARTREEFOCK                             == Not Default ==

 SPIN  (restricted / unrestr.)
    Molecule:                          UNrestricted                            == Not Default ==
    Fragments:                         Restricted                               

 OTHER ASPECTS
    Relativistic Corrections:          ---                                      

    Nuclear Charge Density Model:      Point Charge Nuclei                      
    Core Treatment:                    Frozen Orbital(s)                        

    Hyperfine or Zeeman Interaction:   ---                                      


 Fragment File(s)
 ----------------
 N:
         file : t21.N
         jobid: ADF 2018  RunTime: Mar23-2019 10:00:01  Nodes: 1  Procs: 1
         title: Nitrogen (TZ2P)



                                        ************************************
                                        *  R U N   T Y P E : SINGLE POINT  *
                                        ************************************
  



 ===============
 G E O M E T R Y  ***  Single Atom  ***
 ===============
  

 ATOMS
 =====                            X Y Z                    CHARGE
                                (Angstrom)             Nucl     +Core       At.Mass
                       --------------------------    ----------------       -------
    1  N               0.0000    0.0000    0.0000      7.00      7.00       14.0031


 FRAGMENTS
 =========                                     Atoms in this Fragment     Cart. coord.s (Angstrom)
                                               -------------------------------------------------------
    1  N                                                 1  N            0.0000    0.0000    0.0000



 =====================================
 S Y M M E T R Y ,   E L E C T R O N S
 =====================================
  
 Symmetry: ATOM

 Irreducible Representations, including subspecies
 -------------------------------------------------
 S
 P:x  P:y  P:z
 D:z2  D:x2-y2  D:xy  D:xz  D:yz
 F:z3  F:z  F:xyz  F:z2x  F:z2y  F:x  F:y


 Configuration of Valence Electrons
 ==================================
 ( determined in the SCF procedure )

 Total:   5 (Spin-A)  + 2 (Spin-B)

 Net Charge: 0 (Nuclei minus Electrons)
 Spin polar: 3 (Spin_A minus Spin_B electrons)

 Aufbau principle for MO occupations will be applied through SCF cycle no.     150
 Thereafter, the program will assign electrons to MOs that are spatially
 similar to the occupied MOs in a "reference" cycle ("KeepOrbitals").
 The reference cycle is always the PREVIOUS cycle: it will evolve with
 the SCF procedure.



 =======
 S F O s  ***  (Symmetrized Fragment Orbitals)  ***
 =======
  
 SFOs are linear combinations of (valence) Fragment Orbitals (FOs), such that the SFOs transform as the
 irreducible representations of the (molecular) symmetry group. Each SFO is therefore characterized by
 an irrep of the molecule and by a few (or only one) generating FOs.
 The SFOs constitute a symmetry-adapted basis for the Fock matrix. The MO eigenvector coefficients in
 this basis provide a direct interpretation of the MOs in terms of Frontier Orbital Theory.

 The SFOs are combined with auxiliary Core Functions (CFs) to ensure orthogonalization on the (frozen)
 Core Orbitals (COs). The Core-orthogonalized SFOs (CSFOs) constitute the true Fock basis.

 The FOs, and hence also the (C)SFOs are combinations of the elementary basis functions (BAS). The basis
 functions that participate in the description of the SFOs depend on the irrep. The indices of the
 involved functions are printed below for each irrep.
 (The complete list of primitive basis functions is printed in another section)

 Total nr. of (C)SFOs (summation over all irreps) :    26

 NOTE: a (C)SFO that is defined as a combination of more than one FO is usually NOT normalized.



                                       === S ===
 Nr. of SFOs :    5
 Cartesian basis functions that participate in this irrep (total number =     5) :
      1     2     3     4     5

    SFO  (index         Fragment          Generating    Expansion in Fragment Orbitals
  indx  incl.CFs)   Occup   Orb.Energy   FragmentType  Coeff.   Orbital     on Fragment
 --------------------------------------------------------------------------------------
     1       1      2.000     -15.822 au  N             1.00      1 S               1
                        (    -430.548 eV)
     2       2      2.000      -1.038 au  N             1.00      2 S               1
                        (     -28.239 eV)
     3       3       --         0.728 au  N             1.00      3 S               1
                        (      19.806 eV)
     4       4       --         7.482 au  N             1.00      4 S               1
                        (     203.609 eV)
     5       5       --        66.108 au  N             1.00      5 S               1
                        (    1798.889 eV)



                                       === P:x ===
 Nr. of SFOs :    3
 Cartesian basis functions that participate in this irrep (total number =     3) :
      6     9    12

    SFO  (index         Fragment          Generating    Expansion in Fragment Orbitals
  indx  incl.CFs)   Occup   Orb.Energy   FragmentType  Coeff.   Orbital     on Fragment
 --------------------------------------------------------------------------------------
     1       1      1.000      -0.263 au  N             1.00      1 P:x             1
                        (      -7.150 eV)
     2       2       --         0.464 au  N             1.00      2 P:x             1
                        (      12.635 eV)
     3       3       --         3.814 au  N             1.00      3 P:x             1
                        (     103.788 eV)



                                       === P:y ===
 Nr. of SFOs :    3
 Cartesian basis functions that participate in this irrep (total number =     3) :
      7    10    13

    SFO  (index         Fragment          Generating    Expansion in Fragment Orbitals
  indx  incl.CFs)   Occup   Orb.Energy   FragmentType  Coeff.   Orbital     on Fragment
 --------------------------------------------------------------------------------------
     1       1      1.000      -0.263 au  N             1.00      1 P:y             1
                        (      -7.150 eV)
     2       2       --         0.464 au  N             1.00      2 P:y             1
                        (      12.635 eV)
     3       3       --         3.814 au  N             1.00      3 P:y             1
                        (     103.788 eV)



                                       === P:z ===
 Nr. of SFOs :    3
 Cartesian basis functions that participate in this irrep (total number =     3) :
      8    11    14

    SFO  (index         Fragment          Generating    Expansion in Fragment Orbitals
  indx  incl.CFs)   Occup   Orb.Energy   FragmentType  Coeff.   Orbital     on Fragment
 --------------------------------------------------------------------------------------
     1       1      1.000      -0.263 au  N             1.00      1 P:z             1
                        (      -7.150 eV)
     2       2       --         0.464 au  N             1.00      2 P:z             1
                        (      12.635 eV)
     3       3       --         3.814 au  N             1.00      3 P:z             1
                        (     103.788 eV)



                                       === D:z2 ===
 Nr. of SFOs :    1
 Cartesian basis functions that participate in this irrep (total number =     3) :
     15    18    20

    SFO  (index         Fragment          Generating    Expansion in Fragment Orbitals
  indx  incl.CFs)   Occup   Orb.Energy   FragmentType  Coeff.   Orbital     on Fragment
 --------------------------------------------------------------------------------------
     1       1       --         1.541 au  N             1.00      1 D:z2            1
                        (      41.931 eV)



                                       === D:x2-y2 ===
 Nr. of SFOs :    1
 Cartesian basis functions that participate in this irrep (total number =     2) :
     15    18

    SFO  (index         Fragment          Generating    Expansion in Fragment Orbitals
  indx  incl.CFs)   Occup   Orb.Energy   FragmentType  Coeff.   Orbital     on Fragment
 --------------------------------------------------------------------------------------
     1       1       --         1.541 au  N             1.00      1 D:x2-y2         1
                        (      41.931 eV)



                                       === D:xy ===
 Nr. of SFOs :    1
 Cartesian basis functions that participate in this irrep (total number =     1) :
     16

    SFO  (index         Fragment          Generating    Expansion in Fragment Orbitals
  indx  incl.CFs)   Occup   Orb.Energy   FragmentType  Coeff.   Orbital     on Fragment
 --------------------------------------------------------------------------------------
     1       1       --         1.541 au  N             1.00      1 D:xy            1
                        (      41.931 eV)



                                       === D:xz ===
 Nr. of SFOs :    1
 Cartesian basis functions that participate in this irrep (total number =     1) :
     17

    SFO  (index         Fragment          Generating    Expansion in Fragment Orbitals
  indx  incl.CFs)   Occup   Orb.Energy   FragmentType  Coeff.   Orbital     on Fragment
 --------------------------------------------------------------------------------------
     1       1       --         1.541 au  N             1.00      1 D:xz            1
                        (      41.931 eV)



                                       === D:yz ===
 Nr. of SFOs :    1
 Cartesian basis functions that participate in this irrep (total number =     1) :
     19

    SFO  (index         Fragment          Generating    Expansion in Fragment Orbitals
  indx  incl.CFs)   Occup   Orb.Energy   FragmentType  Coeff.   Orbital     on Fragment
 --------------------------------------------------------------------------------------
     1       1       --         1.541 au  N             1.00      1 D:yz            1
                        (      41.931 eV)



                                       === F:z3 ===
 Nr. of SFOs :    1
 Cartesian basis functions that participate in this irrep (total number =     3) :
     23    28    30

    SFO  (index         Fragment          Generating    Expansion in Fragment Orbitals
  indx  incl.CFs)   Occup   Orb.Energy   FragmentType  Coeff.   Orbital     on Fragment
 --------------------------------------------------------------------------------------
     1       1       --         4.428 au  N             1.00      1 F:z3            1
                        (     120.497 eV)



                                       === F:z ===
 Nr. of SFOs :    1
 Cartesian basis functions that participate in this irrep (total number =     2) :
     23    28

    SFO  (index         Fragment          Generating    Expansion in Fragment Orbitals
  indx  incl.CFs)   Occup   Orb.Energy   FragmentType  Coeff.   Orbital     on Fragment
 --------------------------------------------------------------------------------------
     1       1       --         4.428 au  N             1.00      1 F:z             1
                        (     120.497 eV)



                                       === F:xyz ===
 Nr. of SFOs :    1
 Cartesian basis functions that participate in this irrep (total number =     1) :
     25

    SFO  (index         Fragment          Generating    Expansion in Fragment Orbitals
  indx  incl.CFs)   Occup   Orb.Energy   FragmentType  Coeff.   Orbital     on Fragment
 --------------------------------------------------------------------------------------
     1       1       --         4.428 au  N             1.00      1 F:xyz           1
                        (     120.497 eV)



                                       === F:z2x ===
 Nr. of SFOs :    1
 Cartesian basis functions that participate in this irrep (total number =     3) :
     21    24    26

    SFO  (index         Fragment          Generating    Expansion in Fragment Orbitals
  indx  incl.CFs)   Occup   Orb.Energy   FragmentType  Coeff.   Orbital     on Fragment
 --------------------------------------------------------------------------------------
     1       1       --         4.428 au  N             1.00      1 F:z2x           1
                        (     120.497 eV)



                                       === F:z2y ===
 Nr. of SFOs :    1
 Cartesian basis functions that participate in this irrep (total number =     3) :
     22    27    29

    SFO  (index         Fragment          Generating    Expansion in Fragment Orbitals
  indx  incl.CFs)   Occup   Orb.Energy   FragmentType  Coeff.   Orbital     on Fragment
 --------------------------------------------------------------------------------------
     1       1       --         4.428 au  N             1.00      1 F:z2y           1
                        (     120.497 eV)



                                       === F:x ===
 Nr. of SFOs :    1
 Cartesian basis functions that participate in this irrep (total number =     2) :
     21    24

    SFO  (index         Fragment          Generating    Expansion in Fragment Orbitals
  indx  incl.CFs)   Occup   Orb.Energy   FragmentType  Coeff.   Orbital     on Fragment
 --------------------------------------------------------------------------------------
     1       1       --         4.428 au  N             1.00      1 F:x             1
                        (     120.497 eV)



                                       === F:y ===
 Nr. of SFOs :    1
 Cartesian basis functions that participate in this irrep (total number =     2) :
     22    27

    SFO  (index         Fragment          Generating    Expansion in Fragment Orbitals
  indx  incl.CFs)   Occup   Orb.Energy   FragmentType  Coeff.   Orbital     on Fragment
 --------------------------------------------------------------------------------------
     1       1       --         4.428 au  N             1.00      1 F:y             1
                        (     120.497 eV)

 Total number of charge fitting functions (nprimf)        84
 Total number of Cartesian basis functions (naos)         30
 Total number of Cartesian core functions  (ncos)          0

1
 ***************************************************************************************************



                                              ***********************
                                              *  T E C H N I C A L  *
                                              ***********************
  



 =============================================================
 P A R A L L E L I Z A T I O N  and  V E C T O R I Z A T I O N
 =============================================================
  
 Nr of parallel processes:                                4
 Maximum vector length in NumInt loops:                 128

 IO buffersize (Mb):                                     64.000000



 =====================
 S C F   U P D A T E S
 =====================
  
 Max. nr. of cycles:                               300
 Convergence criterion:                              0.0000010000
   secondary criterion:                              0.0010000000

 Mix parameter (when DIIS does not apply):           0.2000000000
 Mixed ADIIS+DIIS will be used
    Max number of expansion vectors:                10
    Pure ADIIS when Max([F,P]) is above              0.1000000000
    Pure DIIS when Max([F,P]) is below               0.0010000000
 Automatic ElectronSmearing (in case of problematic SCF convergence) disabled



 =================
 P R E C I S I O N  ***  (General: NumInt, NeglectFunctionTails, ...)  ***
 =================
  

 NumInt:           Target precision:                10.0000000000
 -------           Initial precision:               10.0000000000
                   Min. precision (optimization):   10.0000000000

 Neglect Functions:          Basis functions:        0.1000000000E-11
 ------------------          Fit functions:          0.1000000000E-11



 ===========================
 L I N E A R   S C A L I N G
 ===========================
  

 Cut-off radii density fit:                        0.1000000000E-13
 Overlap cut-off criterion AO matrix elements:     0.1000000000E-11
 Cut-offs for Coulomb potential and fitted density:0.1000000000E-13
 Cut-off criterion for Coulomb multipole terms:    0.1000000000E-13
 Progressive Convergence parameter:                 0.000000000    
1
 ***************************************************************************************************



                                            ***************************
                                            *  C O M P U T A T I O N  *
                                            ***************************
  

 Number of elements of the density matrix on this node (used, total):       465       465



 ===========================================
 Numerical Integration : Fuzzy Cells (Becke)
 ===========================================
  
 Becke grid quality: EXCELLENT      
  
 Lebedev angular grid order:             min:  17 max:  47
 Nr. of radial points:                   min: 114 max: 114

 Total nr. of points:        114
 Nr. of blocks:                1
 Block length:               114
 Nr. of dummy points:          0


 Test of Precision of the Numerical Integration Grid
 ===================================================

 Integral of the Total Core Density:                   0.00000000000000



 ========================
 Density Fitting (zlmFit)
 ========================
  
 ZlmFit Fit Quality: EXCELLENT      
  
 Max L-expansion:                        min:  15 max:  15
 Nr. of radial interpolation points:     min: 224 max: 224



 ======================
 RI Hartree-Fock Scheme
 ======================
  
 Fit Set Quality     : EXCELLENT
 Integration Quality : EXCELLENT
 Threshold Quality   : EXCELLENT
 Response Quality    : DEFAULT
 Is Range Separated  :  F
 
 RIHartreeFock Dependency: number of modified vectors:           0



 =====
 S C F  ***  ScaSCF  ***
 =====
  
 Initial density matrix is calculated as sum of fragments

 CYCLE    1
 SCF Error: norm([F,P])=      0.000136443171, max([F,P])=      0.000052005789
 ***** SPIN 1 *****
 orbitals (Q,E):
 ---------------
 S :1...5            ( 1.00   -15.8223)  ( 1.00    -1.0378)  ( 0.00     0.7278)  ( 0.00     7.4823)
                     ( 0.00    66.0992)
 P :1...3            ( 3.00    -0.2627)  ( 0.00     0.4643)  ( 0.00     3.8141)
 D :1...1            ( 0.00     1.5409)
 F :1...1            ( 0.00     4.4274)
 ***** SPIN 2 *****
 orbitals (Q,E):
 ---------------
 S :1...5            ( 1.00   -15.8223)  ( 1.00    -1.0378)  ( 0.00     0.7278)  ( 0.00     7.4823)
                     ( 0.00    66.0992)
 P :1...3            ( 0.00    -0.2627)  ( 0.00     0.4643)  ( 0.00     3.8141)
 D :1...1            ( 0.00     1.5409)
 F :1...1            ( 0.00     4.4274)
  
 Spin polar: 3 (Spin_A minus Spin_B electrons)

 CYCLE    2
  SDIIS (wt  0.000):  1.0000  0.0000
 A-DIIS (wt  1.000):  0.0000  1.0000
  DIIS coefficients:  0.0000  1.0000
 SCF Error: norm([F,P])=      0.254592985326, max([F,P])=      0.095269204121
 ***** SPIN 1 *****
 orbitals (Q,E):
 ---------------
 S :1...3            ( 1.00   -15.8585)  ( 1.00    -1.2294)  ( 0.00     0.6754)
 P :1...2            ( 3.00    -0.6161)  ( 0.00     0.4096)
 D :1...1            ( 0.00     1.4439)
 F :1...1            ( 0.00     4.3735)
 ***** SPIN 2 *****
 orbitals (Q,E):
 ---------------
 S :1...3            ( 1.00   -15.7865)  ( 1.00    -0.8464)  ( 0.00     0.7808)
 P :1...1            ( 0.00     0.0619)
 D :1...1            ( 0.00     1.6380)
 F :1...1            ( 0.00     4.4813)
  
 Spin polar: 3 (Spin_A minus Spin_B electrons)

 CYCLE    3
  SDIIS (wt  0.000):  1.0001  0.0000 -0.0001
 A-DIIS (wt  1.000):  0.0000  0.0000  1.0000
  DIIS coefficients:  0.0000  0.0000  1.0000
 SCF Error: norm([F,P])=      0.102892526125, max([F,P])=      0.055034611223
 ***** SPIN 1 *****
 orbitals (Q,E):
 ---------------
 S :1...3            ( 1.00   -15.6590)  ( 1.00    -1.1594)  ( 0.00     0.7278)
 P :1...2            ( 3.00    -0.5641)  ( 0.00     0.4360)
 D :1...1            ( 0.00     1.5100)
 F :1...1            ( 0.00     4.4559)
 ***** SPIN 2 *****
 orbitals (Q,E):
 ---------------
 S :1...3            ( 1.00   -15.5766)  ( 1.00    -0.7453)  ( 0.00     0.8386)
 P :1...1            ( 0.00     0.1193)
 D :1...1            ( 0.00     1.7117)
 F :1...1            ( 0.00     4.5716)
  
 Spin polar: 3 (Spin_A minus Spin_B electrons)

 CYCLE    4
  SDIIS (wt  0.833): -0.0859 -0.1686  1.2545
 A-DIIS (wt  0.167):  0.0000  0.0000  1.0000
  DIIS coefficients: -0.0716 -0.1405  1.2121
 SCF Error: norm([F,P])=      0.033221741754, max([F,P])=      0.017501754748
 ***** SPIN 1 *****
 orbitals (Q,E):
 ---------------
 S :1...3            ( 1.00   -15.6692)  ( 1.00    -1.1611)  ( 0.00     0.7307)
 P :1...2            ( 3.00    -0.5695)  ( 0.00     0.4354)
 D :1...1            ( 0.00     1.5110)
 F :1...1            ( 0.00     4.4570)
 ***** SPIN 2 *****
 orbitals (Q,E):
 ---------------
 S :1...3            ( 1.00   -15.5840)  ( 1.00    -0.7317)  ( 0.00     0.8484)
 P :1...1            ( 0.00     0.1200)
 D :1...1            ( 0.00     1.7146)
 F :1...1            ( 0.00     4.5750)
  
 Spin polar: 3 (Spin_A minus Spin_B electrons)

 CYCLE    5
  SDIIS (wt  0.968):  0.0127  0.0286 -0.4384  1.3971
 A-DIIS (wt  0.032):  0.0000  0.0000  0.0000  1.0000
  DIIS coefficients:  0.0123  0.0276 -0.4242  1.3843
 SCF Error: norm([F,P])=      0.008364072390, max([F,P])=      0.004204892403
 ***** SPIN 1 *****
 orbitals (Q,E):
 ---------------
 S :1...3            ( 1.00   -15.6696)  ( 1.00    -1.1626)  ( 0.00     0.7301)
 P :1...2            ( 3.00    -0.5707)  ( 0.00     0.4345)
 D :1...1            ( 0.00     1.5106)
 F :1...1            ( 0.00     4.4564)
 ***** SPIN 2 *****
 orbitals (Q,E):
 ---------------
 S :1...3            ( 1.00   -15.5813)  ( 1.00    -0.7283)  ( 0.00     0.8504)
 P :1...1            ( 0.00     0.1195)
 D :1...1            ( 0.00     1.7143)
 F :1...1            ( 0.00     4.5747)
  
 Spin polar: 3 (Spin_A minus Spin_B electrons)

 CYCLE    6
  SDIIS (wt  1.000): -0.0001 -0.0037  0.0520 -0.2284  1.1802
  DIIS coefficients: -0.0001 -0.0037  0.0520 -0.2284  1.1802
 SCF Error: norm([F,P])=      0.000720596981, max([F,P])=      0.000336123497
 ***** SPIN 1 *****
 orbitals (Q,E):
 ---------------
 S :1...3            ( 1.00   -15.6693)  ( 1.00    -1.1627)  ( 0.00     0.7301)
 P :1...2            ( 3.00    -0.5706)  ( 0.00     0.4346)
 D :1...1            ( 0.00     1.5108)
 F :1...1            ( 0.00     4.4566)
 ***** SPIN 2 *****
 orbitals (Q,E):
 ---------------
 S :1...3            ( 1.00   -15.5807)  ( 1.00    -0.7280)  ( 0.00     0.8506)
 P :1...1            ( 0.00     0.1196)
 D :1...1            ( 0.00     1.7144)
 F :1...1            ( 0.00     4.5749)
  
 Spin polar: 3 (Spin_A minus Spin_B electrons)

 CYCLE    7
  SDIIS (wt  1.000):  0.0000  0.0006 -0.0081  0.0363 -0.2421  1.2133
  DIIS coefficients:  0.0000  0.0006 -0.0081  0.0363 -0.2421  1.2133
 SCF Error: norm([F,P])=      0.000067995270, max([F,P])=      0.000035735893
 ***** SPIN 1 *****
 orbitals (Q,E):
 ---------------
 S :1...3            ( 1.00   -15.6693)  ( 1.00    -1.1627)  ( 0.00     0.7301)
 P :1...2            ( 3.00    -0.5706)  ( 0.00     0.4346)
 D :1...1            ( 0.00     1.5108)
 F :1...1            ( 0.00     4.4566)
 ***** SPIN 2 *****
 orbitals (Q,E):
 ---------------
 S :1...3            ( 1.00   -15.5806)  ( 1.00    -0.7280)  ( 0.00     0.8506)
 P :1...1            ( 0.00     0.1197)
 D :1...1            ( 0.00     1.7144)
 F :1...1            ( 0.00     4.5749)
  
 Spin polar: 3 (Spin_A minus Spin_B electrons)

 CYCLE    8
  SDIIS (wt  1.000): -0.0000 -0.0000  0.0003 -0.0018  0.0130 -0.0917  1.0802
  DIIS coefficients: -0.0000 -0.0000  0.0003 -0.0018  0.0130 -0.0917  1.0802
 SCF Error: norm([F,P])=      0.000003193432, max([F,P])=      0.000001244216
 ***** SPIN 1 *****
 orbitals (Q,E):
 ---------------
 S :1...3            ( 1.00   -15.6693)  ( 1.00    -1.1627)  ( 0.00     0.7301)
 P :1...2            ( 3.00    -0.5706)  ( 0.00     0.4346)
 D :1...1            ( 0.00     1.5108)
 F :1...1            ( 0.00     4.4566)
 ***** SPIN 2 *****
 orbitals (Q,E):
 ---------------
 S :1...3            ( 1.00   -15.5806)  ( 1.00    -0.7280)  ( 0.00     0.8506)
 P :1...1            ( 0.00     0.1197)
 D :1...1            ( 0.00     1.7144)
 F :1...1            ( 0.00     4.5749)
  
 Spin polar: 3 (Spin_A minus Spin_B electrons)

 CYCLE    9
  SDIIS (wt  1.000):  0.0000  0.0000 -0.0000  0.0001 -0.0010  0.0070 -0.0939  1.0878
  DIIS coefficients:  0.0000  0.0000 -0.0000  0.0001 -0.0010  0.0070 -0.0939  1.0878
 SCF Error: norm([F,P])=      0.000000082524, max([F,P])=      0.000000025023
 ***** SPIN 1 *****
 orbitals (Q,E):
 ---------------
 S :1...3            ( 1.00   -15.6693)  ( 1.00    -1.1627)  ( 0.00     0.7301)
 P :1...2            ( 3.00    -0.5706)  ( 0.00     0.4346)
 D :1...1            ( 0.00     1.5108)
 F :1...1            ( 0.00     4.4566)
 ***** SPIN 2 *****
 orbitals (Q,E):
 ---------------
 S :1...3            ( 1.00   -15.5806)  ( 1.00    -0.7280)  ( 0.00     0.8506)
 P :1...1            ( 0.00     0.1197)
 D :1...1            ( 0.00     1.7144)
 F :1...1            ( 0.00     4.5749)
  
 Spin polar: 3 (Spin_A minus Spin_B electrons)

 SCF CONVERGED

 CYCLE   10
1
 ***************************************************************************************************



                                                *******************
                                                *  R E S U L T S  *
                                                *******************
  
  
 Hartree-Fock exchange energy:   -6.60432426693569     
 *** Setting up for NEW gradients in Focky
 *** Using FIT density in Focky


                                   ***** SPIN 1 *****

 Orbital Energies, per Irrep and Spin:
 ======================================
                        Occup              E (au)              E (eV)       Diff (eV) with prev. cycle
                        -----      --------------------        ------       --------------------------
 S
               1        1.000     -0.15669296050034E+02      -426.383               2.03E-09
               2        1.000     -0.11626846671221E+01       -31.638               2.11E-08
               3        0.000      0.73008297824702E+00        19.867
               4        0.000      0.75674490291834E+01       205.921
               5        0.000      0.66264499904709E+02      1803.149
 P
               1        3.000     -0.57057299903061E+00       -15.526              -2.81E-09
               2        0.000      0.43457376211748E+00        11.825
               3        0.000      0.38558471764966E+01       104.923
 D
               1        0.000      0.15108148476453E+01        41.111
 F
               1        0.000      0.44565784428494E+01       121.270
  
 HOMO :        1 P                -0.57057299903061E+00
 LUMO :        2 P                 0.43457376211748E+00
  


                                   ***** SPIN 2 *****

 Orbital Energies, per Irrep and Spin:
 ======================================
                        Occup              E (au)              E (eV)       Diff (eV) with prev. cycle
                        -----      --------------------        ------       --------------------------
 S
               1        1.000     -0.15580616221033E+02      -423.970               1.44E-08
               2        1.000     -0.72795379840714E+00       -19.809               5.22E-08
               3        0.000      0.85063078898691E+00        23.147
               4        0.000      0.76854637604420E+01       209.132
               5        0.000      0.66297410464389E+02      1804.044
 P
               1        0.000      0.11966001222391E+00         3.256
               2        0.000      0.62483018794339E+00        17.002
               3        0.000      0.40248896808479E+01       109.523
 D
               1        0.000      0.17144425155740E+01        46.652
 F
               1        0.000      0.45749366985806E+01       124.490
  
 HOMO :        2 S                -0.72795379840714E+00
 LUMO :        1 P                 0.11966001222391E+00
  


 Orbital Energies, all Irreps, both Spins
 ========================================

 Irrep        no.  (spin)   Occup              E (au)                E (eV)
 ---------------------------------------------------------------------------
 S             1     A       1.00       -0.15669296050034E+02      -426.3832
 S             1      B      1.00       -0.15580616221033E+02      -423.9701
 S             2     A       1.00       -0.11626846671221E+01       -31.6383
 S             2      B      1.00       -0.72795379840714E+00       -19.8086
 P             1     A       3.00       -0.57057299903061E+00       -15.5261
 P             1      B      0.00        0.11966001222391E+00         3.2561
 P             2     A       0.00        0.43457376211748E+00        11.8254
 P             2      B      0.00        0.62483018794339E+00        17.0025
 S             3     A       0.00        0.73008297824702E+00        19.8666
 S             3      B      0.00        0.85063078898691E+00        23.1468
 D             1     A       0.00        0.15108148476453E+01        41.1114
 D             1      B      0.00        0.17144425155740E+01        46.6524
 P             3     A       0.00        0.38558471764966E+01       104.9229
 P             3      B      0.00        0.40248896808479E+01       109.5228
 F             1     A       0.00        0.44565784428494E+01       121.2697
 F             1      B      0.00        0.45749366985806E+01       124.4904
 S             4     A       0.00        0.75674490291834E+01       205.9208
 S             4      B      0.00        0.76854637604420E+01       209.1321
 S             5     A       0.00        0.66264499904709E+02      1803.1488
 S             5      B      0.00        0.66297410464389E+02      1804.0443
  
 Spin polar: 3 (Spin_A minus Spin_B electrons)


 All Electron Calculation, thus no Orbital Energies of the Core Orbitals are calculated



 =======================
 T O T A L   E N E R G Y  ***  (contributions)  ***
 =======================
  

*** Note ***

The requirements to the integration accuracy are somewhat higher than for bond energies.
One can expect an accuracy of roughly (accint-2) decimal places, where accint is the
general integration accuracy parameter.
The Coulomb energy is the sum of the Hartree energy (electron-electron Coulomb interaction)
and the nuclear-electron attraction energy. It includes the correction for the first-order
fit error in the Hartree energy.
The potential energy is the sum of the nuclear repulsion energy, the Coulomb energy,
and the exchange-correlation energy.

Kinetic energy           =           54.402841193343

Nuclear repulsion energy =            0.000000000000
Coulomb energy           =         -102.201033125973
XC energy                =           -6.604324266936
Total potential energy   =         -108.805357392909

----------------------------------------------------
Total energy             =          -54.402516199565
Virial theorem           =            1.999994026162
----------------------------------------------------

 Gross Charges per Atom (Z minus electrons)
 ==========================================
            -0.0000
 Net Total: -0.00000000



 =================================================================
 M U L T I P O L E   D E R I V E D   C H A R G E   A N A L Y S I S
 =================================================================

 This charge analysis uses the atomic multipoles (obtained from the fitted density) up to some level X,
 and reconstructs these multipoles exactly (up to level X) by distributing charges over all atoms.
 This is achieved by using Lagrange multipliers and a weight function to keep the multipoles local.

 Dummy atoms can be included (by setting INCDUM in MDC-block to 1) to obtain a fractional charge.
 This is generally useful and necessary only for small symmetrical molecules, when there are not
 enough degrees of freedom to reconstruct the multipoles.

 Since the atomic multipoles are reconstructed up to level X,
 the molecular multipoles are represented also up to level X.
 The recommended level is to reconstruct up to quadrupole : -> MDC-q charges.

 See: M. Swart, P.Th. van Duijnen, J.G. Snijders, J.Comput.Chem., (2001), p. 79-88.

 ------------------------------------------------------------------------ 
 Atomic electronic multipole moments from SCF equations (a.u.) for spin A
 ------------------------------------------------------------------------ 

   atom        charge        dip-x     dip-y     dip-z      quad-xx   quad-xy   quad-xz   quad-yy   quad-yz   quad-zz
 --------------------------------------------------------------------------------------------------------------------
    1 N     -1.500000    -0.000000 -0.000000 -0.000000     0.000000 -0.000000 -0.000000  0.000000 -0.000000 -0.000000

 ------------------------------------------------------------------------ 
 Atomic electronic multipole moments from SCF equations (a.u.) for spin B
 ------------------------------------------------------------------------ 

   atom        charge        dip-x     dip-y     dip-z      quad-xx   quad-xy   quad-xz   quad-yy   quad-yz   quad-zz
 --------------------------------------------------------------------------------------------------------------------
    1 N      1.500000    -0.000000 -0.000000 -0.000000    -0.000000 -0.000000  0.000000 -0.000000  0.000000  0.000000

 ----------------------------------------------------- 
 MDC atomic charges (includes spinA + spinB electrons)
 ----------------------------------------------------- 

 The MDC-m charges are just the Monopole terms in the multipole expansion, while for the MDC-d charges
 also the Dipoles are reconstructed. The usually preferred charges are the MDC-q charges.
 These reconstruct the Monopoles, Dipoles and Quadrupoles (both atomic AND molecular).

 Given here are the atomic charges of both spins added. These should be compared
 to the values from a "normal" RESTRICTED calculation.

        Atom    Level:     MDC-m        MDC-d        MDC-q
 ---------------------------------------------------------
     1     N            0.000000     0.000000     0.000000

 -------------------------------- 
 MDC spin density (spinA - spinB)
 -------------------------------- 
 Reported here are the the number of Alpha-electrons minus the number of Beta-electrons
 per atom, which usually are regarded as spin densities.

        Atom    Level:     MDC-m        MDC-d        MDC-q
 ---------------------------------------------------------
     1     N            3.000000     3.000000     3.000000

 --------------------------------------------- 
 Represented total molecular multipole moments
 --------------------------------------------- 

 Given here are the Molecular multipole moments from the atomic charges, and from the Fit Density.
 Note that the atomic charges represent the latter, NOT the ones from the Exact density.

 Reported here are the Molecular multipole moments of both spins added.
 They should be compared to the values from a "normal" RESTRICTED calculation.

            Q (a.u.)             Dipole moment (Debye)                                          Quadrupole moment (a.u.)
                                 x         y         z              xx        xy        xz        yy        yz        zz
------------------------------------------------------------------------------------------------------------------------
MDC-m         0.0000        0.0000    0.0000    0.0000          0.0000    0.0000    0.0000    0.0000    0.0000    0.0000
MDC-d         0.0000        0.0000    0.0000    0.0000          0.0000    0.0000    0.0000    0.0000    0.0000    0.0000
MDC-q         0.0000        0.0000    0.0000    0.0000          0.0000    0.0000    0.0000    0.0000    0.0000    0.0000
 
Fit.Dens.     0.0000       -0.0000   -0.0000   -0.0000         -0.0000   -0.0000    0.0000   -0.0000    0.0000    0.0000



 ==========
 S**2 value  ***  see also R. Bulo et al., J.Am.Chem.Soc., 124 (2002) 13903-13910, note (29)  ***
 ==========
  
                                       exact      expectation value

 Total S2 (S squared)                  3.75000             3.75601



 =============
 Dipole Moment  ***  (Debye)  ***
 =============
  
 Vector   :         0.00000000      0.00000000      0.00000000
 Magnitude:         0.00000000

 This molecular dipole moment is calculated with analytic integration



 =========================================
 Quadrupole Moment (Buckingham convention)  ***  (a.u.)  ***
 =========================================
  
      quad-xx        quad-xy        quad-xz        quad-yy        quad-yz        quad-zz
      0.00000000     0.00000000     0.00000000     0.00000000     0.00000000     0.00000000

 This molecular quadrupole moment is calculated with analytic integration



 =======================================================================
 Electrostatic potential at the Nuclei due to electrons and other nuclei
 =======================================================================
  
         Atom                  Potential
         ----                  ---------
     1)   N                  18.33650589
 
 
 ========================
 No memory problems found
 ========================
 
 Maximum number of active allocate calls:         777
 
 *******************************************************************************

                             A D F   E X I T
 NORMAL TERMINATION



 =================
 Timing Statistics
 =================
  
 Total Used :                     CPU=        9.16      System=        0.22     Elapsed=        9.72

 Calls  Section                     ( Mean, Percentage )
 ---------------------------------------------------------------------------------------------------
     3  ><      ................      0.00    0.03             0.00    0.45             0.00    0.04
     1  INIT    ................      0.52    5.70             0.00    1.03             0.81    8.34
     1  GEOMET  ................      0.04    0.43             0.03   11.98             0.07    0.68
     1  FRAGM   ................      0.01    0.09             0.00    1.39             0.01    0.12
     1  INPUTA  ................      0.00    0.02             0.00    0.00             0.00    0.02
     1  ATDEN   ................      0.00    0.01             0.00    0.93             0.00    0.03
     1  MAINSY  ................      0.01    0.16             0.00    0.91             0.02    0.17
     1  SYMFIT  ................      0.00    0.01             0.00    0.00             0.00    0.01
     1  CORORT  ................      0.00    0.01             0.00    0.03             0.00    0.01
     1  SYMORB  ................      0.00    0.01             0.00    0.45             0.00    0.02
     1  FITINT  ................      0.01    0.16             0.00    0.01             0.01    0.15
     1  CLSMAT  ................      0.00    0.02             0.00    0.00             0.00    0.02
     1  ORTHON  ................      0.01    0.13             0.00    0.49             0.01    0.14
     1  GENPT   ................      0.02    0.22             0.00    0.00             0.02    0.21
     1  PTBAS   ................      0.01    0.09             0.00    0.90             0.01    0.11
    10  FOCKY   ................      0.77   84.06             0.01   64.87             0.79   81.21
    10  FOCKTR  ................      0.01    0.63             0.00    8.99             0.01    0.80
    10  SDIIS   ................      0.00    0.36             0.00    1.58             0.00    0.37
     1  COREPS  ................      0.67    7.34             0.01    2.77             0.68    6.98
     1  POPAN   ................      0.02    0.25             0.01    3.21             0.03    0.31
     1  DEBYE   ................      0.00    0.04             0.00    0.00             0.00    0.04
     1  EXIT PROCEDURE .........      0.02    0.24             0.00    0.00             0.02    0.23


 Currently Open Files (EXIT00)
 ====================

 Unit    Access Format  Status   Type       Ident (file)
 -------------------------------------------------------
   3      SEQ    FORM   TRANSP  NORMAL      LOGFILE
                                          ( logfile )


 Buffered I/O statistics
 =======================
 Memory available:                     67108864
 Number of records fitting in memory:     16131
 Input :   0.1% of                        62106  *4k bytes
 Output:   9.8% of                         4729  *4k bytes
 Records from serial files evicted:           0
                    others evicted:           0
 Hash table lookups:     127444 with          0 conflicts (  0.00%)

 ***************************************************************************************************
 (LOGFILE)
 <Mar23-2019> <10:00:01>  ADF 2018  RunTime: Mar23-2019 10:00:01  Nodes: 1  Procs: 1
 <Mar23-2019> <10:00:01>  Nitrogen (TZ2P)
 <Mar23-2019> <10:00:01>  RunType   : CREATE
 <Mar23-2019> <10:00:01>  Net Charge: 0 (Nuclei minus Electrons)
 <Mar23-2019> <10:00:01>  Symmetry  : ATOM
  Coordinates
    Atom         X           Y           Z   (Angstrom)
    1.N         0.000000    0.000000    0.000000
 <Mar23-2019> <10:00:01>  >>>> CORORT
 <Mar23-2019> <10:00:01>  >>>> FITINT
 <Mar23-2019> <10:00:01>  >>>> CLSMAT
 <Mar23-2019> <10:00:01>  >>>> ORTHON
 <Mar23-2019> <10:00:01>  >>>> GENPT
 <Mar23-2019> <10:00:01>  Block Length=  72
 <Mar23-2019> <10:00:01>  >>>> PTBAS
 <Mar23-2019> <10:00:01>  >>>> CYCLE
 <Mar23-2019> <10:00:01>  CalcFitR12Fit
 <Mar23-2019> <10:00:01>  CalcFitCoeff
 <Mar23-2019> <10:00:01>              |Error|         MaxErr       Wt(A-DIIS)
 <Mar23-2019> <10:00:01>      1      0.00000000      0.00000000
 <Mar23-2019> <10:00:01>      2      6.56882459      4.17270294    100.0
 <Mar23-2019> <10:00:01>      3      1.72482095      1.33485805    100.0
 <Mar23-2019> <10:00:01>      4      1.05528379      0.63183308    100.0
 <Mar23-2019> <10:00:01>      5      0.48135174      0.33112700    100.0
 <Mar23-2019> <10:00:02>      6      0.25230965      0.16412252    100.0
 <Mar23-2019> <10:00:02>      7      0.12107921      0.08076168     80.6
 <Mar23-2019> <10:00:02>      8      0.04984775      0.03305011     32.4
 <Mar23-2019> <10:00:02>      9      0.00776781      0.00510174      4.1
 <Mar23-2019> <10:00:02>     10      0.00020699      0.00013982      0.0
 <Mar23-2019> <10:00:02>     11      0.00000154      0.00000072      0.0
 <Mar23-2019> <10:00:02>     12      0.00000013      0.00000009      0.0
 <Mar23-2019> <10:00:02>     13      0.00000000      0.00000000      0.0
 <Mar23-2019> <10:00:02>  SCF converged
 <Mar23-2019> <10:00:02>     14      0.00000000      0.00000000      0.0
 <Mar23-2019> <10:00:02>  >>>> POPAN
 <Mar23-2019> <10:00:02>  >>>> DEBYE
 <Mar23-2019> <10:00:02>  NORMAL TERMINATION
 <Mar23-2019> <10:00:02>  END
 <Mar23-2019> <10:00:02>  ADF 2018  RunTime: Mar23-2019 10:00:02  Nodes: 1  Procs: 4
 <Mar23-2019> <10:00:03>  N
 <Mar23-2019> <10:00:03>  RunType   : SINGLE POINT
 <Mar23-2019> <10:00:03>  Net Charge: 0 (Nuclei minus Electrons)
 <Mar23-2019> <10:00:03>  Spin polar: 3 (Spin_A minus Spin_B electrons)
 <Mar23-2019> <10:00:03>  Symmetry  : ATOM
 <Mar23-2019> <10:00:03>  >>>> FRAGM
  Coordinates
    Atom         X           Y           Z   (Angstrom)
    1.N         0.000000    0.000000    0.000000
 <Mar23-2019> <10:00:03>  >>>> CORORT
 <Mar23-2019> <10:00:03>  >>>> FITINT
 <Mar23-2019> <10:00:03>  >>>> CLSMAT
 <Mar23-2019> <10:00:03>  >>>> ORTHON
 <Mar23-2019> <10:00:03>  >>>> GENPT
 <Mar23-2019> <10:00:03>  Block Length= 114
 <Mar23-2019> <10:00:03>  >>>> PTBAS
 <Mar23-2019> <10:00:03>  >>>> CYCLE
 <Mar23-2019> <10:00:03>  CalcFitR12Fit
 <Mar23-2019> <10:00:03>  CalcFitCoeff
 <Mar23-2019> <10:00:04>              |Error|         MaxErr       Wt(A-DIIS)
 <Mar23-2019> <10:00:04>      1      0.00013644      0.00005201
 <Mar23-2019> <10:00:05>      2      0.25459299      0.09526920    100.0
 <Mar23-2019> <10:00:06>      3      0.10289253      0.05503461    100.0
 <Mar23-2019> <10:00:07>      4      0.03322174      0.01750175     16.7
 <Mar23-2019> <10:00:07>      5      0.00836407      0.00420489      3.2
 <Mar23-2019> <10:00:08>      6      0.00072060      0.00033612      0.0
 <Mar23-2019> <10:00:09>      7      0.00006800      0.00003574      0.0
 <Mar23-2019> <10:00:09>      8      0.00000319      0.00000124      0.0
 <Mar23-2019> <10:00:10>      9      0.00000008      0.00000003      0.0
 <Mar23-2019> <10:00:11>  SCF converged
 <Mar23-2019> <10:00:11>     10      0.00000000      0.00000000      0.0
 <Mar23-2019> <10:00:12>   Total energy        -54.40251620 a.u.
 <Mar23-2019> <10:00:12>  >>>> POPAN
 <Mar23-2019> <10:00:12>  >>>> DEBYE
 <Mar23-2019> <10:00:12>  NORMAL TERMINATION
 <Mar23-2019> <10:00:12>  END
